# vtk DataFile Version 2.0
2D Simulation Python
ASCII
DATASET UNSTRUCTURED_GRID
FIELD FieldData 1
NODES 1 2 int
386 659

POINTS 386 double
0.0 1.0 0.0
1.725 0.9304410965870141 0.0
8.275 1.069558903412986 0.0
10.0 1.0 0.0
10.0 -7.329511099479578e-17 0.0
0.0 0.0 0.0
0.1916666666663293 1.034660334658477 0.0
0.3833333333324708 1.0614322252633952 0.0
0.574999999998553 1.074222581158715 0.0
0.7666666666645966 1.0701204089019731 0.0
0.9583333333312576 1.050059333533471 0.0
1.149999999998384 1.0186051122005244 0.0
1.341666666665662 0.9829165005146877 0.0
1.533333333332819 0.9511159710201604 0.0
1.92348484848444 0.9257422514700315 0.0
2.121969696968978 0.9391422717963558 0.0
2.320454545453434 0.9673751662098605 0.0
2.518939393937826 1.003559722080466 0.0
2.717424242422235 1.0388766657190143 0.0
2.915909090906411 1.064718186850645 0.0
3.1143939393908 1.074785923040922 0.0
3.312878787875129 1.066626061640854 0.0
3.511363636359531 1.042227408350032 0.0
3.709848484843827 1.0075366549501392 0.0
3.90833333332816 0.971008990163412 0.0
4.106818181812215 0.9415473137278906 0.0
4.305303030296804 0.9263323297194346 0.0
4.503787878781365 0.929072391188729 0.0
4.702272727265711 0.9490996620537033 0.0
4.900757575750005 0.9815328890073541 0.0
5.099242424235156 1.0184671109899415 0.0
5.297727272720327 1.0509003379443733 0.0
5.496212121205663 1.0709276088104955 0.0
5.694696969690998 1.0736676702809647 0.0
5.89318181817668 1.058452686273413 0.0
6.09166666666213 1.0289910098382715 0.0
6.290151515147423 0.9924633450514979 0.0
6.488636363633031 0.9577725916511223 0.0
6.687121212118713 0.9333739383596722 0.0
6.885606060604342 0.9252140769590532 0.0
7.084090909089381 0.9352818131489582 0.0
7.282575757574369 0.9611233342804402 0.0
7.481060606059355 0.9964402779190041 0.0
7.679545454544343 1.0326248337897634 0.0
7.878030303029329 1.0608577282034588 0.0
8.076515151514705 1.074257748529949 0.0
8.46666666666447 1.0488840289802255 0.0
8.658333333329285 1.0170834994862372 0.0
8.84999999999549 0.9813948878005916 0.0
9.041666666661694 0.9499406664675143 0.0
9.233333333327899 0.9298795910985187 0.0
9.42499999999549 0.9257774188411448 0.0
9.616666666663775 0.938567774736202 0.0
9.808333333331985 0.9653396653412419 0.0
10.0 0.7999999999999998 0.0
10.0 0.6000000000013869 0.0
10.0 0.4000000000016644 0.0
10.0 0.2000000000008322 0.0
9.799999999999999 -0.03604119677610369 0.0
9.6 -0.06316628298334953 0.0
9.399999999999999 -0.07466487468759697 0.0
9.2 -0.06769237392340881 0.0
8.999999999999998 -0.04397368422662315 0.0
8.799999999999997 -0.00937649254444994 0.0
8.599999999999998 0.027540318122456966 0.0
8.399999999999997 0.0576440220269346 0.0
8.199999999999998 0.0734873650111395 0.0
7.999999999999997 0.07115091568923199 0.0
7.799999999999997 0.05121268040828391 0.0
7.599999999999998 0.018605112200229625 0.0
7.399999999999997 -0.018605112200230763 0.0
7.199999999999998 -0.05121268040828458 0.0
6.999999999999997 -0.07115091568923235 0.0
6.799999999999997 -0.07348736501113927 0.0
6.599999999999998 -0.057644022026933854 0.0
6.399999999999997 -0.02754031812245588 0.0
6.199999999999998 0.00937649254445084 0.0
5.999999999999997 0.04397368422662399 0.0
5.799999999999998 0.06769237392340915 0.0
5.599999999999998 0.07466487468759693 0.0
5.399999999999999 0.06316628298334935 0.0
5.199999999999998 0.036041196776103124 0.0
4.999999999999999 -3.0243494783136537e-16 0.0
4.799999999999999 -0.03604119677610355 0.0
4.599999999999999 -0.0631662829833496 0.0
4.399999999999999 -0.07466487468759697 0.0
4.199999999999999 -0.06769237392340889 0.0
3.999999999999999 -0.043973684226623386 0.0
3.799999999999999 -0.009376492544450374 0.0
3.599999999999999 0.027540318122456685 0.0
3.399999999999998 0.05764402202693432 0.0
3.199999999999998 0.07348736501113948 0.0
2.999999999999999 0.0711509156892321 0.0
2.799999999999998 0.051212680408284125 0.0
2.599999999999998 0.018605112200229597 0.0
2.399999999999999 -0.01860511220023021 0.0
2.199999999999999 -0.05121268040828454 0.0
1.999999999999998 -0.0711509156892323 0.0
1.799999999999999 -0.07348736501113934 0.0
1.6 -0.057644022026934125 0.0
1.4 -0.02754031812245656 0.0
1.199999999999999 0.009376492544450771 0.0
0.9999999999999982 0.0439736842266239 0.0
0.7999999999999989 0.06769237392340903 0.0
0.6000000000000014 0.07466487468759697 0.0
0.3999999999999986 0.0631662829833493 0.0
0.1999999999999993 0.03604119677610323 0.0
0.0 0.1999999999995579 0.0
0.0 0.3999999999989749 0.0
0.0 0.5999999999989468 0.0
0.0 0.7999999999994734 0.0
0.6612154389801487 0.5482609281131448 0.0
9.338784561016713 0.5333236649143493 0.0
8.745025052351284 0.5574284967149117 0.0
1.2549749476137309 0.5576406696609749 0.0
8.169536361703537 0.5649229559642641 0.0
1.8304635260476447 0.5513184427791996 0.0
2.423038094808919 0.576612037690457 0.0
7.576945968284835 0.5803198931761236 0.0
3.0214227896682058 0.5896287142566902 0.0
6.978146197051011 0.5699643034723145 0.0
3.6183339901678835 0.5830572271560193 0.0
6.376793344043606 0.572254459867806 0.0
4.219505669412143 0.5658034728847877 0.0
5.799879733395525 0.5266259543462857 0.0
4.796483172360832 0.5148088511104673 0.0
5.29819520766589 0.5208844560317731 0.0
9.675480116843396 0.6871456631550094 0.0
0.324519883154396 0.709367159047643 0.0
4.523287467119784 0.3151992431085627 0.0
3.909073931198129 0.34898617464984755 0.0
6.074184456216723 0.33605165280086774 0.0
3.3102426550002977 0.3670376701176924 0.0
6.688369935413128 0.3443168842570787 0.0
7.885475372828111 0.36160858011936436 0.0
2.1145219678764584 0.3427697453656205 0.0
2.712363393303348 0.36342718697314363 0.0
7.2875289044813165 0.34897848989364744 0.0
9.037426396026742 0.657526110306401 0.0
0.9625736039688306 0.6743103859241351 0.0
1.5271399086136928 0.3413586838038468 0.0
8.472860082349083 0.35777703688431733 0.0
8.463286857857593 0.6777428279524181 0.0
1.5367131410729835 0.6613696824121084 0.0
0.9790944393016324 0.3657351332893936 0.0
9.020905560695962 0.35097643149427954 0.0
4.519862690695528 0.6656340541725435 0.0
3.912104617493674 0.6785559203202884 0.0
6.076019239842236 0.6859519663516245 0.0
2.1123860644555457 0.6662796315876811 0.0
7.887612962012754 0.6876434762917196 0.0
3.3148154367934857 0.6980748288446262 0.0
6.683911631116055 0.6714621268133895 0.0
2.7182191570988765 0.6926471293377776 0.0
7.281712645120495 0.6772018169767474 0.0
0.33475202722709185 0.3125560995317557 0.0
9.665247972771892 0.290491824412797 0.0
5.583193033270344 0.33165705278237745 0.0
5.0143116271170705 0.31602879665206135 0.0
5.510852311171436 0.7041966630209502 0.0
5.0849525703915255 0.6927181643512321 0.0
0.6638533925473368 0.7484115304338094 0.0
9.336146607448327 0.714555362834228 0.0
8.75032724343019 0.7325280480160054 0.0
1.2496727565657146 0.7328995228044729 0.0
8.673594296195853 0.2709201316649304 0.0
1.326405703196789 0.26483093949995334 0.0
0.6821616629357994 0.2520321382116961 0.0
9.317838337062803 0.21442325414224253 0.0
8.17487797657041 0.7504561281312803 0.0
1.8251219932735947 0.717363792387757 0.0
8.087607796833368 0.2833125465391502 0.0
1.9123917341091363 0.24940160495816144 0.0
7.491574560699472 0.2692164284620443 0.0
2.508393452909703 0.27078891354711365 0.0
6.892691170126715 0.2528092796418491 0.0
3.106759948588561 0.2878298035752032 0.0
6.291498516046469 0.25914761265835545 0.0
3.7053047798945307 0.2715170351374495 0.0
2.4182004323391806 0.7943396468347746 0.0
7.5817928317043695 0.8068298992151299 0.0
3.016367482278016 0.8321708877793577 0.0
6.983407487130991 0.7709654720395702 0.0
3.6124513926915744 0.8124128694265655 0.0
6.384720946795144 0.7895741678753901 0.0
4.211010212895084 0.7712180532615946 0.0
5.795944540931064 0.8715814124647149 0.0
4.7996275800934765 0.8212895927672087 0.0
5.299263372785379 0.20675181057674397 0.0
4.306430579522561 0.2422700153875751 0.0
4.738786619502243 0.21765496331381654 0.0
5.859321663291642 0.2549942907322563 0.0
5.297891316570109 0.7275619521491694 0.0
0.1963525027426837 0.5045404725692592 0.0
9.803647497256334 0.49662357579454114 0.0
9.48553765909931 0.12857616133764968 0.0
0.5144623408999051 0.1921695354713057 0.0
9.566304125741354 0.5019563695073987 0.0
0.4336958742565322 0.5155805204033906 0.0
9.507639269920665 0.8029371296482514 0.0
0.4923607300753584 0.8655237288375701 0.0
9.822774843195342 0.8139534781561836 0.0
0.17722515680327294 0.83967818468361 0.0
7.694886358942867 0.19739832857071954 0.0
2.3051065397684853 0.16794801501622095 0.0
8.877779425554428 0.1763281159345489 0.0
1.1222205744265419 0.19734744241865645 0.0
7.095948005549885 0.15594449654326836 0.0
2.903878956852083 0.21125170885825217 0.0
6.496149560351531 0.16255015188918287 0.0
3.502722529840657 0.20183697446842508 0.0
1.709894320038177 0.1514747690004362 0.0
8.290105624371897 0.21015209645217117 0.0
4.102424807184923 0.15519617690774073 0.0
8.580160149597972 0.836452519410337 0.0
1.4198398503453662 0.8092406291936362 0.0
8.924183358866593 0.8076586335785886 0.0
1.0758166411281813 0.8361036286090834 0.0
0.8424916080271992 0.8484970444475278 0.0
9.157508391967276 0.7942817567849537 0.0
8.349062273759927 0.8496034551498776 0.0
1.6509377243320276 0.7962678819337164 0.0
5.594890890437835 0.5066656750445316 0.0
5.001592441693225 0.49754015289055814 0.0
7.792951325085111 0.8526883356882885 0.0
2.20704752521442 0.8076889736812242 0.0
7.784160056624784 0.5385484975733803 0.0
2.2158357897314414 0.5289848570533217 0.0
2.810979678587781 0.8583006013981891 0.0
7.188954734468297 0.8081519196103899 0.0
3.4069743812064406 0.8600291267484462 0.0
6.591913019798308 0.8060994605273436 0.0
4.003779513713236 0.8116567467896251 0.0
5.988111235443168 0.8595455257766486 0.0
4.607481998738448 0.8074317851794937 0.0
7.18408365220914 0.5319577536724993 0.0
2.8157474412581296 0.544193292699538 0.0
6.584891502158989 0.5302928746853333 0.0
3.4127446191020825 0.5441817001154388 0.0
5.984599433796196 0.5257936805480734 0.0
4.011602981373107 0.5308436677986567 0.0
4.611794816672287 0.5132296989224686 0.0
8.554266024681759 0.532383208151445 0.0
1.4457339742823676 0.5256647351413928 0.0
[...]
POINT_DATA 386
VECTORS vector double
1.0 0.0 0.0
0.0 0.0 0.0
0.0 0.0 0.0
0.0 0.0 0.0
0.0 0.0 0.0
1.0 0.0 0.0
0.0 0.0 0.0
0.0 0.0 0.0
0.0 0.0 0.0
0.0 0.0 0.0
0.0 0.0 0.0
0.0 0.0 0.0
0.0 0.0 0.0
0.0 0.0 0.0
0.0 0.0 0.0
0.0 0.0 0.0
0.0 0.0 0.0
0.0 0.0 0.0
0.0 0.0 0.0
0.0 0.0 0.0
0.0 0.0 0.0
0.0 0.0 0.0
0.0 0.0 0.0
0.0 0.0 0.0
0.0 0.0 0.0
0.0 0.0 0.0
0.0 0.0 0.0
0.0 0.0 0.0
0.0 0.0 0.0
0.0 0.0 0.0
0.0 0.0 0.0
0.0 0.0 0.0
0.0 0.0 0.0
0.0 0.0 0.0
0.0 0.0 0.0
0.0 0.0 0.0
0.0 0.0 0.0
0.0 0.0 0.0
0.0 0.0 0.0
0.0 0.0 0.0
0.0 0.0 0.0
0.0 0.0 0.0
0.0 0.0 0.0
0.0 0.0 0.0
0.0 0.0 0.0
0.0 0.0 0.0
0.0 0.0 0.0
0.0 0.0 0.0
0.0 0.0 0.0
0.0 0.0 0.0
0.0 0.0 0.0
0.0 0.0 0.0
0.0 0.0 0.0
0.0 0.0 0.0
1.01298761032 0.0875265198562 0.0
1.16854455609 -0.00765216766526 0.0
1.16568787623 0.00916320063419 0.0
1.16562588249 -0.0536120116562 0.0
0.0 0.0 0.0
0.0 0.0 0.0
0.0 0.0 0.0
0.0 0.0 0.0
0.0 0.0 0.0
0.0 0.0 0.0
0.0 0.0 0.0
0.0 0.0 0.0
0.0 0.0 0.0
0.0 0.0 0.0
0.0 0.0 0.0
0.0 0.0 0.0
0.0 0.0 0.0
0.0 0.0 0.0
0.0 0.0 0.0
0.0 0.0 0.0
0.0 0.0 0.0
0.0 0.0 0.0
0.0 0.0 0.0
0.0 0.0 0.0
0.0 0.0 0.0
0.0 0.0 0.0
0.0 0.0 0.0
0.0 0.0 0.0
0.0 0.0 0.0
0.0 0.0 0.0
0.0 0.0 0.0
0.0 0.0 0.0
0.0 0.0 0.0
0.0 0.0 0.0
0.0 0.0 0.0
0.0 0.0 0.0
0.0 0.0 0.0
0.0 0.0 0.0
0.0 0.0 0.0
0.0 0.0 0.0
0.0 0.0 0.0
0.0 0.0 0.0
0.0 0.0 0.0
0.0 0.0 0.0
0.0 0.0 0.0
0.0 0.0 0.0
0.0 0.0 0.0
0.0 0.0 0.0
0.0 0.0 0.0
0.0 0.0 0.0
0.0 0.0 0.0
0.0 0.0 0.0
0.0 0.0 0.0
1.0 0.0 0.0
1.0 0.0 0.0
1.0 0.0 0.0
1.0 0.0 0.0
1.15640651933 -0.0196979283486 0.0
1.17290107716 -0.00826536498528 0.0
1.1469446243 -0.0707512131418 0.0
1.14695919055 -0.0686243121932 0.0
1.14270525591 -0.0314110168429 0.0
1.16682805536 0.00213426041284 0.0
1.12717949478 0.0820928105562 0.0
1.12527727591 0.0511978861662 0.0
1.1250122239 0.013523990349 0.0
1.17618923422 0.0295276671803 0.0
1.13533823453 -0.0663260478795 0.0
1.13910238235 -0.0540088487776 0.0
1.15101858813 -0.0191375322863 0.0
1.14605625211 -0.00931062982589 0.0
1.1341701604 0.0645263045313 0.0
1.16832296412 0.0328598005853 0.0
1.16269680929 0.0400265037628 0.0
1.11213622551 -0.0492209414355 0.0
1.11493148837 0.043731973566 0.0
1.13668757249 -0.0638808862125 0.0
1.15750398973 -0.0640796174373 0.0
1.15606130687 -0.0356251247706 0.0
1.1312995761 -0.0253105564487 0.0
1.15079341512 0.00677562945287 0.0
1.14116863605 0.0571286354832 0.0
1.14058524834 0.0725809093667 0.0
1.14133124464 0.0433866061112 0.0
1.16229678709 -0.0504102305329 0.0
1.15317223684 -0.041824647434 0.0
1.15344851991 -0.0437217647038 0.0
1.14563822427 -0.076437362317 0.0
1.15112120437 -0.0529940986712 0.0
1.16129793589 -0.0475117288225 0.0
1.15085101783 -0.061356772105 0.0
1.14546881774 -0.0506331024488 0.0
1.15919129834 0.0394625004864 0.0
1.14468543048 -0.0671755311278 0.0
1.10983854859 -0.0365235683718 0.0
1.15624831486 0.0763400003207 0.0
1.13156340501 -0.00261905529989 0.0
1.11270694839 -0.0430358990494 0.0
1.17821350855 -0.0364219329989 0.0
1.11375550586 0.0597727209995 0.0
1.14848508909 0.0740362424933 0.0
1.13031045728 0.0890943221281 0.0
1.1630838415 0.0125309060811 0.0
1.14471969488 0.0108562659876 0.0
1.12589352719 0.0526527598891 0.0
1.11563397618 0.0337288871537 0.0
1.07193823899 0.00693486740354 0.0
1.12191593181 -0.0137426489695 0.0
1.16765449681 -0.0162341296763 0.0
1.12048309744 -0.0825693484494 0.0
1.12037939455 -0.0791867132694 0.0
1.12337600527 -0.0610896316016 0.0
1.12071215157 -0.0678058040339 0.0
1.15806313655 -0.0243533047802 0.0
1.09603822963 0.0167136711248 0.0
1.10814546508 -0.03440203051 0.0
1.15915003096 -0.00999871730152 0.0
1.14599601802 0.00121681951387 0.0
1.10686703444 0.0165818119339 0.0
1.09530521021 0.0742283321642 0.0
1.12540716252 0.0824051352204 0.0
1.08957441501 0.0274403434972 0.0
1.15776260334 -0.00316830811726 0.0
1.12430787148 -0.072968560923 0.0
1.11941262763 -0.0850890668669 0.0
1.2395535206 0.138087120331 0.0
1.20095754727 0.110853939179 0.0
1.06939872735 0.023306053511 0.0
1.40006947073 0.0534796943946 0.0
1.1345801095 -0.114822681523 0.0
1.2699703935 -0.137060780809 0.0
1.3579617385 -0.0552644838394 0.0
0.958508190279 0.00304626684874 0.0
1.26172796939 0.13766991215 0.0
1.24180257254 0.0794586928125 0.0
1.10312699376 -0.000957529347423 0.0
1.022873335 0.0553681653975 0.0
1.22925097209 -0.00229189906933 0.0
1.08181782775 -0.00377229122312 0.0
1.03780637806 0.0254692165727 0.0
1.16836613771 0.00923311884004 0.0
0.942121813136 0.0292930131327 0.0
1.27560486677 0.0543485177587 0.0
1.17597723793 0.0133774446769 0.0
1.12674117948 0.0110097839712 0.0
1.24379175551 0.0349149971998 0.0
0.960326064088 -0.00536038139949 0.0
1.04776412174 -0.0135041999268 0.0
1.09288955516 -0.0755002576321 0.0
1.15022056386 0.0864817231618 0.0
1.03931907401 0.0973516029245 0.0
1.08482122944 -0.107050467553 0.0
1.20272456053 -0.107458520515 0.0
0.950512262259 0.040549461745 0.0
1.22718455316 0.0700224621221 0.0
0.998484081961 -0.0779538659309 0.0
1.19590539539 -0.105354671183 0.0
1.00527371632 -0.032790789571 0.0
1.27987194739 -0.070600412699 0.0
1.00685103197 -0.0548105440999 0.0
1.03374147942 -0.106415810405 0.0
1.17227720786 -0.10140819757 0.0
1.17856907307 -0.10232024311 0.0
1.02637914518 -0.099646681265 0.0
0.96841915068 -0.0286176236518 0.0
1.26042625213 -0.0804254827378 0.0
0.982442864026 -0.0438878900277 0.0
1.26055172751 -0.0794654036641 0.0
1.16096521809 0.00202731140784 0.0
1.13987050523 0.0688640263998 0.0
1.06471750539 0.0336826688391 0.0
1.28156774799 0.153684848786 0.0
1.13602248269 0.0294592340988 0.0
1.15082537326 0.0776897010967 0.0
1.05110270716 0.0991474052488 0.0
1.34811527365 0.119612308155 0.0
1.02667128203 -0.0639395608578 0.0
1.33365258846 -0.124074033966 0.0
1.26991782151 -0.105639717857 0.0
1.03551309686 -0.0510053065222 0.0
1.33583051652 0.101298879301 0.0
1.16001026264 0.0550981314789 0.0
1.13190274979 0.0487477727762 0.0
1.15858109017 -0.0502969937584 0.0
1.13896767321 -0.0595783163405 0.0
1.1492642133 -0.0270289336272 0.0
1.1435120619 -0.0571788569879 0.0
1.14005866565 0.0471463071179 0.0
1.1470755347 -0.0625333649071 0.0
1.15350203116 -0.058766716496 0.0
1.15264272598 -0.0612651848512 0.0
1.16521219988 -0.0446871935684 0.0
1.15812783537 -0.0617232179032 0.0
1.16155561706 -0.0392719889253 0.0
1.1515399298 0.0129333466393 0.0
1.15381281676 -0.0363804465363 0.0
1.15368033039 -0.0542993107013 0.0
1.15631669439 0.0423204035603 0.0
1.13797300564 -0.00347071687959 0.0
1.13677442363 -0.0753101253292 0.0
1.14906310104 -0.0558962866803 0.0
1.13577642558 -0.0242042290762 0.0
1.17149683612 -0.0070904003116 0.0
1.13419084215 0.071876010607 0.0
1.14421693262 0.0704601498586 0.0
1.38073008962 0.0140313184449 0.0
1.17090480025 -0.147760086946 0.0
1.14215284288 -0.0977425829895 0.0
1.30602250442 0.0770192956534 0.0
1.00521140653 -0.014469110515 0.0
1.00349785667 -0.053276307664 0.0
1.38904479611 -0.025954342152 0.0
1.12404677476 0.103855136994 0.0
1.26595091671 0.164578630905 0.0
1.069629822 0.165383740961 0.0
1.36856366089 -0.0399032311939 0.0
1.12987931912 0.266266115514 0.0
1.10800604192 0.0386801202793 0.0
1.01194891832 -0.030400554608 0.0
1.27508738461 -0.105733422988 0.0
1.2070991512 0.00766781190594 0.0
1.15918874057 -0.030068895546 0.0
0.992297957791 -0.111859956036 0.0
1.20194643438 -0.1132963525 0.0
1.21635673367 0.061316039721 0.0
0.933797663202 0.0313735170916 0.0
1.05194368743 -0.129850795361 0.0
0.884164576589 0.00787748956249 0.0
0.935814190648 0.0945892879712 0.0
1.11898729538 0.103203916089 0.0
0.888737142471 -0.00418149488033 0.0
1.22081567194 -0.074294520378 0.0
1.14448488143 -0.0540589105704 0.0
1.14772595358 -0.0689786145422 0.0
1.00887942154 -0.131598150107 0.0
1.17202850063 -0.0315859697244 0.0
1.13762444657 -0.0170035157141 0.0
1.13168338523 0.102891362571 0.0
1.10207835472 0.190843753049 0.0
1.13339048992 0.0696087405974 0.0
1.14271908395 0.0489983335078 0.0
0.920028111878 0.00856092357809 0.0
1.31653432421 0.0417323932324 0.0
1.15764867909 0.0262498718824 0.0
1.14652234623 0.0410938058878 0.0
1.13292429034 -0.0444656487848 0.0
1.14550814057 -0.0719528462944 0.0
1.16730913014 0.138884154483 0.0
1.12090068525 -0.0383016600994 0.0
1.15203807692 0.0033101126159 0.0
1.13260411641 0.0544880740513 0.0
1.14017604962 -0.0600079773772 0.0
1.16624124928 -0.0721650583675 0.0
1.1419994168 0.0635768724608 0.0
1.14317759306 -0.0676104262494 0.0
1.12528593971 -0.0113111415168 0.0
1.1021620547 0.037259680498 0.0
1.12858165259 0.0730610229292 0.0
1.15324111759 -0.0440917936793 0.0
1.11752198225 -0.0702027320517 0.0
1.11310270713 0.0273837239655 0.0
1.16184826087 0.0767555787509 0.0
1.16746418626 -0.0740474229548 0.0
1.13957255712 -0.053934783878 0.0
1.15362170598 0.0273780634962 0.0
1.2043531079 0.0253064420519 0.0
1.13802749824 -0.016522952907 0.0
1.18687245507 -0.0180370417987 0.0
1.14081781716 -0.0511734291215 0.0
1.1442909685 -0.0319763218491 0.0
1.18708461332 -0.0252319069216 0.0
1.138195208 -0.0614205052071 0.0
1.10260807536 -0.0713063991581 0.0
1.11176694343 -0.00530971937898 0.0
1.17432778751 -0.0229131292025 0.0
1.19877682842 0.0153047709455 0.0
1.16430024397 0.0223976975989 0.0
1.10966910932 0.0837251556316 0.0
1.12200139866 0.0567858818121 0.0
1.14458798363 0.0162593876755 0.0
1.14003823868 0.0376097140122 0.0
0.994365493841 -0.0841256081211 0.0
1.152302571 0.00524274200132 0.0
1.12301996021 0.0721779976038 0.0
1.16320353927 0.0264254340177 0.0
1.17437743597 0.0302252068853 0.0
1.15143369444 0.00671639668448 0.0
1.04097452348 0.110008144277 0.0
0.859487273441 0.0389835059528 0.0
1.25367498818 0.17627367622 0.0
1.06767593271 -0.0470380699822 0.0
1.18494070466 0.00119755991965 0.0
1.13332422086 -0.0176961304145 0.0
1.1851098331 -0.0258066167521 0.0
1.14958453771 -0.071908402897 0.0
1.1457459977 -0.0614120912184 0.0
1.23057032708 -0.0348035280938 0.0
1.13280526855 0.123721461815 0.0
1.00593056828 -0.0280982612768 0.0
0.970668636081 -0.0124109362819 0.0
1.16417767249 -0.0107252919385 0.0
1.13226189734 0.0289779255801 0.0
0.78109917437 0.0448654151874 0.0
0.99590688177 -0.104073234956 0.0
0.890323381316 -0.151876477584 0.0
1.12898804334 0.0853583873742 0.0
1.13039664432 0.0577138386757 0.0
1.14133182341 0.0578733022173 0.0
1.17304995479 -0.0201593495445 0.0
1.156765106 -0.00423908617564 0.0
1.13872584093 0.00473390132798 0.0
1.1350569048 -0.0735145894256 0.0
1.13627890895 -0.070062351705 0.0
1.17742751062 0.0270840011691 0.0
0.74601221541 -0.00470296973032 0.0
1.1199988641 0.00590814225153 0.0
0.950291338894 0.148068204291 0.0
0.921462348268 0.0909485855487 0.0
0.812472256954 0.0452074491386 0.0
1.23504273359 -0.00713068098105 0.0
0.781187962856 0.0109454045298 0.0
1.21606297286 -0.0333367722065 0.0
0.987479428337 -0.129869059611 0.0
0.98006895834 -0.128301743115 0.0
0.989329584327 -0.0809141284764 0.0
1.05292993993 -0.146484011116 0.0
0.832213190496 -0.0276225527127 0.0
1.23825517207 -0.0255295946427 0.0
0.884921481374 0.138200497679 0.0
1.10370531095 0.110805292617 0.0
1.22621743034 -0.0498504661823 0.0
0.770399471909 0.03776439301 0.0

SCALARS scalar1 double
LOOKUP_TABLE default
4.77103133044
14.0195415886
5.97005134526
8.21473487137
-8.40491087188
-2.14115905025
8.2826959848
6.92588790811
5.75659508
5.58756486553
6.05678427686
7.79917266198
9.89946710153
10.3745699543
14.66436994
12.4102325874
9.78662446257
8.30611285009
7.64956140669
6.06714876684
5.75011614505
6.5126554421
6.67376001334
7.85627722518
10.7839471736
11.2654605798
12.2676778742
14.0603396761
12.5869607091
10.4683612821
10.2863539745
4.68962576692
6.8544260027
5.67310865284
6.5840923583
7.92588173678
8.76756906948
10.4661217268
13.8195046444
12.5851309773
12.0822667635
12.0242603739
8.7442784264
7.11699702326
6.27892254686
5.93973215249
6.10698147568
7.91926617492
9.91681704246
10.3752213437
13.8601279053
14.6425455598
13.8607015266
11.9070907737
0.85951466045
-0.125370839627
0.0537500655087
-0.607067043813
-7.66383461639
-6.25645086523
-5.95827937166
-5.67527453256
-6.48142811306
-8.2972483925
-12.2652833975
-11.8173685055
-14.3014597978
-16.1325819502
-10.9378513856
-9.4590578996
-8.21680349998
-6.06851761173
-5.40364756751
-5.86022958177
-5.9992627093
-7.00874518197
-9.74771561615
-12.6214824713
-10.5942096504
-13.0685969446
-11.5521344788
-9.70853504832
-8.37986751807
-5.7154251004
-7.26397639687
-6.21184157664
-5.87555087138
-6.82682202365
-9.32048630857
-10.3901563424
-11.3461750331
-15.6042579675
-13.1357788311
-10.6590157273
-10.6005480172
-7.55485004141
-6.38053079733
-6.49841397785
-5.8442689051
-6.34882824244
-8.61293168214
-9.23605817643
-10.2745209448
-14.01168855
-15.9225761474
-15.4338095323
-14.0883540937
3.18970461318
0.240530766397
0.00700029133894
-1.71004854039
0.0113346715133
-0.0129942930406
-0.00216572996187
-0.0212810452572
-0.000354467701524
-0.0113339550911
-0.0802405029664
-0.085981229073
-0.112523276264
-0.0348360312206
-0.0947534342789
-0.0515247701751
-0.0527047518736
-0.0311306344669
0.0427667134115
-0.0479508160922
-0.212102803841
-0.391967508893
0.279082837951
0.22335758553
0.177926274424
0.176407003477
0.107882911769
0.146855217913
0.210768048565
0.168780221228
0.0682609232031
-0.156193935296
-0.084843583479
0.226316375332
0.140362078147
-0.0966515028044
-0.157274478201
0.108127034414
0.114961819801
-0.432950520759
-0.376807215216
-0.188911313018
-0.18990097055
-0.352962103036
-0.245182775325
-0.46081412922
-0.34835555628
-0.460448307223
0.529715455795
-0.0845804295338
0.351199914716
-0.112592982905
-0.0294364328056
-0.260496092059
0.349820260043
-0.209750798032
0.00600432641481
0.00546640590854
0.19099762266
0.181642889517
-0.0358020868921
-0.279587508739
0.129571351996
-0.208824042786
0.322436800566
0.0808457067294
-0.159668515311
0.096097377169
-0.314822523297
0.232169850107
-0.05644748351
0.168242775315
-0.296746367934
-0.244521252216
0.553257356398
-0.443861131881
0.508794798934
-0.269760229888
-0.322993181095
1.98047922336
-0.0307262159465
-0.297204141806
0.0877309286446
-0.519162252327
0.310840126498
0.0827082545027
0.00412876026061
-0.00337793542811
-2.59973810392
-1.05482464553
-0.0109395776942
-0.0205640129254
0.886994834626
2.54001233905
1.25757060703
0.0733506798888
-0.938640661045
-1.01803534137
-0.952715983131
-0.126708167223
-1.83335224991
-0.473541788752
-1.2681052397
-0.38790208547
-1.04442918188
-0.238297460459
-0.90328514551
1.30516691895
1.23381014467
1.20525983353
1.27981641908
1.94520307155
0.395143092897
1.97554306895
0.43010850847
-0.0944105237438
0.03195927338
1.46906127447
0.320047595236
-0.0291290069822
0.00917626147819
1.48981443718
0.24668760718
1.76847002382
0.543924897738
0.629204009858
1.31136677358
0.0645387310833
-0.0116794465344
-0.00674731851131
-0.0155061665648
-0.0210924713275
0.0293070237853
-0.011130531265
0.019373740418
-0.00276530808432
-0.010971931397
-0.0180928829476
-0.00420620541547
-0.00412350790757
-0.00530402635286
-0.0127949679994
-0.0076187508121
-0.00399773705631
-0.00858667917528
-0.0189066332931
-0.0285692615861
0.0557071114517
-0.0324541348538
0.00536268832995
-0.0276856151381
0.0117812146617
0.0362138128062
1.24610648004
0.570349948126
0.65608081521
1.64344640673
1.82579458425
0.263097824466
1.32478961763
0.186122671218
-1.90375804357
0.179163148203
0.0620401402339
-2.1543932876
-1.2955185585
-0.364431236145
-0.135380600066
-0.0934077357402
-2.2835363282
-0.637276042965
-0.889760681012
-2.57254955568
-2.48906683407
-3.10119159772
-2.17420690189
-1.8397650233
-2.35630819356
-1.41502913596
0.0286621133162
0.0816376529856
-2.06209119644
-0.00279633885
0.158064695274
-1.23021793173
1.16319213352
0.14487814189
0.00565611586236
3.00003313218
0.0664503028701
0.0908474900862
0.0117738712994
0.0681015292134
0.104897080446
0.203576856521
0.163838664
0.277423004494
0.0495602966323
-0.124692450564
-0.0865305513547
-0.302722934417
-0.327685628491
-0.123541659177
-0.424811133097
-0.25952449752
-0.451036997887
-0.169860531092
-0.228281413668
-0.456302881806
-0.085402100295
-0.115085424718
-0.449525036488
-0.134677205169
-0.199873326843
-0.122351592418
-0.0647406767434
0.00179384497717
-0.113765337021
-0.260972618086
-0.264761833519
-0.269914836779
-0.359847421862
0.111403060833
0.0648166672
-0.44207474515
-0.396168183177
0.140408663799
0.10602736217
3.28072565588
-0.0977277031916
-0.219944672847
-0.042515384285
-0.088087068335
0.0675315682332
0.918125400945
-3.51955888694
-2.44230614745
-0.91614770229
-0.168502335516
0.100427882688
0.0307377653443
-0.0103211401364
-0.00319465754136
-3.22992744449
2.15672477878
3.55286738229
-2.53405655009
-0.00840832546507
0.0193327622218
-3.93178051671
-3.50135701937
-3.17751377354
0.0250618266883
0.00369767232561
0.0883295822004
0.144824778643
-0.00557457297212
0.00125031946191
0.0107601478198
0.0528710565076
-2.97847119833
-3.78541198045
0.0322586079897
-3.44859154275
-3.28640197549
-3.7526237921
-2.03478358433
3.69815825332
2.80353643836
3.2326891573
3.2449048778
-3.5784611523
-2.59372616059
3.58116220619
2.6111417641
5.7005628597
1.91629988088
-2.80544717115
-4.02610829691

SCALARS scalar2 double
LOOKUP_TABLE default
4.77103133044
14.0195415886
5.97005134526
8.21473487137
-8.40491087188
-2.14115905025
8.2826959848
6.92588790811
5.75659508
5.58756486553
6.05678427686
7.79917266198
9.89946710153
10.3745699543
14.66436994
12.4102325874
9.78662446257
8.30611285009
7.64956140669
6.06714876684
5.75011614505
6.5126554421
6.67376001334
7.85627722518
10.7839471736
11.2654605798
12.2676778742
14.0603396761
12.5869607091
10.4683612821
10.2863539745
4.68962576692
6.8544260027
5.67310865284
6.5840923583
7.92588173678
8.76756906948
10.4661217268
13.8195046444
12.5851309773
12.0822667635
12.0242603739
8.7442784264
7.11699702326
6.27892254686
5.93973215249
6.10698147568
7.91926617492
9.91681704246
10.3752213437
13.8601279053
14.6425455598
13.8607015266
11.9070907737
0.85951466045
-0.125370839627
0.0537500655087
-0.607067043813
-7.66383461639
-6.25645086523
-5.95827937166
-5.67527453256
-6.48142811306
-8.2972483925
-12.2652833975
-11.8173685055
-14.3014597978
-16.1325819502
-10.9378513856
-9.4590578996
-8.21680349998
-6.06851761173
-5.40364756751
-5.86022958177
-5.9992627093
-7.00874518197
-9.74771561615
-12.6214824713
-10.5942096504
-13.0685969446
-11.5521344788
-9.70853504832
-8.37986751807
-5.7154251004
-7.26397639687
-6.21184157664
-5.87555087138
-6.82682202365
-9.32048630857
-10.3901563424
-11.3461750331
-15.6042579675
-13.1357788311
-10.6590157273
-10.6005480172
-7.55485004141
-6.38053079733
-6.49841397785
-5.8442689051
-6.34882824244
-8.61293168214
-9.23605817643
-10.2745209448
-14.01168855
-15.9225761474
-15.4338095323
-14.0883540937
3.18970461318
0.240530766397
0.00700029133894
-1.71004854039
0.0113346715133
-0.0129942930406
-0.00216572996187
-0.0212810452572
-0.000354467701524
-0.0113339550911
-0.0802405029664
-0.085981229073
-0.112523276264
-0.0348360312206
-0.0947534342789
-0.0515247701751
-0.0527047518736
-0.0311306344669
0.0427667134115
-0.0479508160922
-0.212102803841
-0.391967508893
0.279082837951
0.22335758553
0.177926274424
0.176407003477
0.107882911769
0.146855217913
0.210768048565
0.168780221228
0.0682609232031
-0.156193935296
-0.084843583479
0.226316375332
0.140362078147
-0.0966515028044
-0.157274478201
0.108127034414
0.114961819801
-0.432950520759
-0.376807215216
-0.188911313018
-0.18990097055
-0.352962103036
-0.245182775325
-0.46081412922
-0.34835555628
-0.460448307223
0.529715455795
-0.0845804295338
0.351199914716
-0.112592982905
-0.0294364328056
-0.260496092059
0.349820260043
-0.209750798032
0.00600432641481
0.00546640590854
0.19099762266
0.181642889517
-0.0358020868921
-0.279587508739
0.129571351996
-0.208824042786
0.322436800566
0.0808457067294
-0.159668515311
0.096097377169
-0.314822523297
0.232169850107
-0.05644748351
0.168242775315
-0.296746367934
-0.244521252216
0.553257356398
-0.443861131881
0.508794798934
-0.269760229888
-0.322993181095
1.98047922336
-0.0307262159465
-0.297204141806
0.0877309286446
-0.519162252327
0.310840126498
0.0827082545027
0.00412876026061
-0.00337793542811
-2.59973810392
-1.05482464553
-0.0109395776942
-0.0205640129254
0.886994834626
2.54001233905
1.25757060703
0.0733506798888
-0.938640661045
-1.01803534137
-0.952715983131