# vtk DataFile Version 2.0
2D Simulation Python
ASCII
DATASET UNSTRUCTURED_GRID
FIELD FieldData 1
NODES 1 2 int
386 659

POINTS 386 double
0.0 1.0 0.0
1.725 0.982887921519325 0.0
8.275 1.0171120784806749 0.0
10.0 1.0 0.0
10.0 -1.8031217141910456e-17 0.0
0.0 0.0 0.0
0.1916666666663293 1.0085267354391845 0.0
0.3833333333324708 1.0151128469307276 0.0
0.574999999998553 1.0182593826456021 0.0
0.7666666666645966 1.0172502135794679 0.0
0.9583333333312576 1.0123150193876564 0.0
1.149999999998384 1.004577014939797 0.0
1.341666666665662 0.9957973146560177 0.0
1.533333333332819 0.9879741154717739 0.0
1.92348484848444 0.9817319658836684 0.0
2.121969696968978 0.9850284842043395 0.0
2.320454545453434 0.9919740149881141 0.0
2.518939393937826 1.0008757217354143 0.0
2.717424242422235 1.0095639885364631 0.0
2.915909090906411 1.015921221269691 0.0
3.1143939393908 1.018397969512657 0.0
3.312878787875129 1.0163905746024704 0.0
3.511363636359531 1.0103882995600295 0.0
3.709848484843827 1.0018540808532137 0.0
3.90833333332816 0.9928679664109671 0.0
4.106818181812215 0.9856201448582947 0.0
4.305303030296804 0.9818771301231558 0.0
4.503787878781365 0.9825512084165706 0.0
4.702272727265711 0.9874780864146386 0.0
4.900757575750005 0.9954569345243804 0.0
5.099242424235156 1.0045430654749543 0.0
5.297727272720327 1.0125219135848882 0.0
5.496212121205663 1.0174487915832386 0.0
5.694696969690998 1.0181228698769424 0.0
5.89318181817668 1.014379855142026 0.0
6.09166666666213 1.0071320335894471 0.0
6.290151515147423 0.9981459191471892 0.0
6.488636363633031 0.9896117004402545 0.0
6.687121212118713 0.9836094253976588 0.0
6.885606060604342 0.9816020304873369 0.0
7.084090909089381 0.9840787787302111 0.0
7.282575757574369 0.9904360114634028 0.0
7.481060606059355 0.9991242782644555 0.0
7.679545454544343 1.0080259850117934 0.0
7.878030303029329 1.014971515795615 0.0
8.076515151514705 1.0182680341163268 0.0
8.46666666666447 1.0120258845283212 0.0
8.658333333329285 1.0042026853442096 0.0
8.84999999999549 0.9954229850604774 0.0
9.041666666661694 0.987684980612586 0.0
9.233333333327899 0.9827497864206531 0.0
9.42499999999549 0.9817406173543634 0.0
9.616666666663775 0.9848871530691733 0.0
9.808333333331985 0.9914732645607465 0.0
10.0 0.7999999999999998 0.0
10.0 0.6000000000013869 0.0
10.0 0.4000000000016644 0.0
10.0 0.2000000000008322 0.0
9.799999999999999 -0.008866439197703 0.0
9.6 -0.015539439794299621 0.0
9.399999999999999 -0.01836819059406549 0.0
9.2 -0.016652896441497263 0.0
8.999999999999998 -0.010817898193459907 0.0
8.799999999999997 -0.0023066964604294806 0.0
8.599999999999998 0.006775151159244073 0.0
8.399999999999997 0.014180916898734588 0.0
8.199999999999998 0.01807851325577193 0.0
7.999999999999997 0.01750372696385437 0.0
7.799999999999997 0.012598752472407018 0.0
7.599999999999998 0.004577014939724528 0.0
7.399999999999997 -0.004577014939724807 0.0
7.199999999999998 -0.012598752472407184 0.0
6.999999999999997 -0.01750372696385447 0.0
6.799999999999997 -0.018078513255771866 0.0
6.599999999999998 -0.014180916898734412 0.0
6.399999999999997 -0.006775151159243804 0.0
6.199999999999998 0.0023066964604297026 0.0
5.999999999999997 0.010817898193460122 0.0
5.799999999999998 0.01665289644149735 0.0
5.599999999999998 0.018368190594065484 0.0
5.399999999999999 0.015539439794299609 0.0
5.199999999999998 0.008866439197702861 0.0
4.999999999999999 -7.440155477814764e-17 0.0
4.799999999999999 -0.00886643919770295 0.0
4.599999999999999 -0.015539439794299646 0.0
4.399999999999999 -0.01836819059406549 0.0
4.199999999999999 -0.01665289644149728 0.0
3.999999999999999 -0.010817898193459966 0.0
3.799999999999999 -0.0023066964604295907 0.0
3.599999999999999 0.006775151159243995 0.0
3.399999999999998 0.014180916898734533 0.0
3.199999999999998 0.0180785132557719 0.0
2.999999999999999 0.017503726963854424 0.0
2.799999999999998 0.012598752472407066 0.0
2.599999999999998 0.004577014939724526 0.0
2.399999999999999 -0.004577014939724669 0.0
2.199999999999999 -0.01259875247240718 0.0
1.999999999999998 -0.01750372696385444 0.0
1.799999999999999 -0.018078513255771873 0.0
1.6 -0.014180916898734477 0.0
1.4 -0.006775151159243969 0.0
1.199999999999999 0.0023066964604296857 0.0
0.9999999999999982 0.010817898193460095 0.0
0.7999999999999989 0.016652896441497304 0.0
0.6000000000000014 0.01836819059406549 0.0
0.3999999999999986 0.015539439794299562 0.0
0.1999999999999993 0.008866439197702868 0.0
0.0 0.1999999999995579 0.0
0.0 0.3999999999989749 0.0
0.0 0.5999999999989468 0.0
0.0 0.7999999999994734 0.0
0.6587824094017061 0.5764665959955819 0.0
9.341217577159162 0.5122850244621743 0.0
8.742431943983629 0.5643833778912811 0.0
1.2575675925544256 0.5638632502589849 0.0
8.164773122669201 0.5995452566212773 0.0
1.8352184443964952 0.5365565485892396 0.0
2.4281961254342064 0.5877398978196908 0.0
7.571713425620453 0.5971562757866307 0.0
3.027895354861268 0.628131358391649 0.0
6.9714514894957915 0.5632174636593507 0.0
3.6258749699072985 0.6052354742537897 0.0
6.370081006955792 0.5781020045170885 0.0
4.226970240764841 0.5561717559381703 0.0
5.796327528697007 0.5584081175970943 0.0
4.800943034085732 0.5097915675004087 0.0
5.298657918377024 0.5437028686495086 0.0
9.677397783035962 0.6764563012747444 0.0
0.3226022159811782 0.7233295966908658 0.0
4.528738976214414 0.30562770838604364 0.0
3.9163537185021156 0.35495255323245695 0.0
6.069461989411178 0.3509460638387743 0.0
3.316919492338589 0.3986843812086273 0.0
6.681805887884666 0.3404606871253965 0.0
7.880859770523594 0.3870537951302312 0.0
2.1191123796837767 0.3387762818364492 0.0
2.7179062846029725 0.38674913895017077 0.0
7.281864089379633 0.3535492604163247 0.0
9.037664129654972 0.6488708483878907 0.0
0.9623358049128364 0.691808941991429 0.0
1.5308154806911316 0.33779201965937744 0.0
8.469182396289279 0.3759430078927764 0.0
8.45963507623647 0.6974092105481741 0.0
1.5403632298345056 0.6553932225524555 0.0
0.9789807843551208 0.3826874056130317 0.0
9.021019110269153 0.34353220362985537 0.0
4.525420594182166 0.6565733356810106 0.0
3.9189856089273785 0.6832931819743697 0.0
6.071173826557146 0.7033161026833062 0.0
2.116499180137778 0.6613827954232887 0.0
7.883477699857681 0.7133842368858769 0.0
3.3209249705325443 0.7292597407698267 0.0
6.677665743529715 0.6678629378435742 0.0
2.7232217513839427 0.7171176143749014 0.0
7.2765660920659645 0.6804458287979154 0.0
0.3328860155777126 0.3260839952641836 0.0
9.667113982766754 0.27992307976092856 0.0
5.581855928396936 0.35503148405734725 0.0
5.016408600725966 0.32205173859441094 0.0
5.5098209911481195 0.7260904779632871 0.0
5.086758185661504 0.700595661953685 0.0
0.6618622238500511 0.766655792302827 0.0
9.338137768178704 0.70195299128459 0.0
8.748388813992289 0.7373300725821292 0.0
1.251610886934328 0.7376348806697586 0.0
8.671220180197112 0.2793142746196943 0.0
1.328779145116605 0.2676870666663613 0.0
0.6803537061732823 0.26754392671960936 0.0
9.319646280757766 0.20402184625803038 0.0
8.171397469524836 0.773006565882593 0.0
1.8285969070502286 0.7094622691143292 0.0
8.083715973350987 0.304298886905599 0.0
1.9162734697128652 0.24476367151311998 0.0
7.486963731410867 0.2794971469532917 0.0
2.512935419703239 0.28313437344575915 0.0
6.887060784366518 0.25080637737202416 0.0
3.112327724918838 0.3143257101581346 0.0
6.286490375253171 0.266590982310476 0.0
3.7116057967698453 0.28458342597452496 0.0
2.4211154037622435 0.8039945541945404 0.0
7.5788334438612095 0.8137530377297864 0.0
3.020065367647747 0.8389730572681965 0.0
6.979547671060672 0.7831716106577646 0.0
3.6168023120687938 0.8202043544570649 0.0
6.38072728766523 0.7986405930430592 0.0
4.215435201413077 0.7810769676223354 0.0
5.79416215568581 0.8685083861636869 0.0
4.801848196224786 0.8287298010365657 0.0
5.299494836219393 0.20457331195303066 0.0
4.312067698236286 0.23657127455817267 0.0
4.742060365873339 0.217893349867816 0.0
5.856641727651139 0.2628461088336559 0.0
5.2982489096244185 0.7383603787379442 0.0
0.19488450966714854 0.5167472561081446 0.0
9.805115489705873 0.48665179962362176 0.0
9.48695053501341 0.13487862048473745 0.0
0.5130494616689888 0.18859656111311182 0.0
9.568879906884977 0.48304850527135174 0.0
0.43112008979168187 0.5393569372032686 0.0
9.509114197217716 0.8087837469042152 0.0
0.49088580106582125 0.8627050008468342 0.0
9.823651560342537 0.8141972117449005 0.0
0.17634843948884146 0.840822845028911 0.0
7.691860328635762 0.20139277863667943 0.0
2.3081040890364446 0.1783526058606173 0.0
8.877057721124899 0.18215738245973767 0.0
1.1229421046527812 0.1983550918345375 0.0
7.092200843317694 0.16875931085802526 0.0
2.9075540258604735 0.2155136373264864 0.0
6.492290493642873 0.172832393860012 0.0
3.507008419225914 0.20723467927368192 0.0
1.7124284675365011 0.1617883650344274 0.0
8.287568312878228 0.20991098601836503 0.0
4.1067229561068315 0.16592484072222444 0.0
8.578263786929625 0.8377518543881599 0.0
1.4217356370497223 0.8153559593310465 0.0
8.923690606019793 0.8131216874968817 0.0
1.076309312861194 0.8364184088815276 0.0
0.8417299103195375 0.8479852944573538 0.0
9.158270069864106 0.7995350630913022 0.0
8.34676823115183 0.8510720311396955 0.0
1.6532299381095208 0.8036618431520365 0.0
5.593101428400246 0.5382638298657394 0.0
5.0042853166953325 0.5038978419644197 0.0
7.790538377757786 0.85471193386236 0.0
2.20944164949413 0.8186338716117775 0.0
7.779073406605196 0.5663938160806192 0.0
2.2208829660516396 0.5269573488697755 0.0
2.8139786577332346 0.8617787118206512 0.0
7.185847816104006 0.8213357385276676 0.0
3.4106023674628614 0.8632192122029724 0.0
6.588249775668485 0.8189201329253113 0.0
4.00780825896887 0.8230646598608548 0.0
5.985601073096248 0.860002671936308 0.0
4.610409656672575 0.8185651849056965 0.0
7.177639059080151 0.5299313059777602 0.0
2.8220065780977994 0.5786809788357566 0.0
6.577580450441839 0.5263712613377624 0.0
3.4202306856170255 0.5791208001849715 0.0
5.979614633833575 0.5514778211064986 0.0
4.019678396767652 0.5292796617016936 0.0
4.617649418583431 0.5009142134659349 0.0
8.550364880491458 0.551614852863776 0.0
[...]
POINT_DATA 386
VECTORS vector double
1.0 0.0 0.0
0.0 0.0 0.0
0.0 0.0 0.0
0.0 0.0 0.0
0.0 0.0 0.0
1.0 0.0 0.0
0.0 0.0 0.0
0.0 0.0 0.0
0.0 0.0 0.0
0.0 0.0 0.0
0.0 0.0 0.0
0.0 0.0 0.0
0.0 0.0 0.0
0.0 0.0 0.0
0.0 0.0 0.0
0.0 0.0 0.0
0.0 0.0 0.0
0.0 0.0 0.0
0.0 0.0 0.0
0.0 0.0 0.0
0.0 0.0 0.0
0.0 0.0 0.0
0.0 0.0 0.0
0.0 0.0 0.0
0.0 0.0 0.0
0.0 0.0 0.0
0.0 0.0 0.0
0.0 0.0 0.0
0.0 0.0 0.0
0.0 0.0 0.0
0.0 0.0 0.0
0.0 0.0 0.0
0.0 0.0 0.0
0.0 0.0 0.0
0.0 0.0 0.0
0.0 0.0 0.0
0.0 0.0 0.0
0.0 0.0 0.0
0.0 0.0 0.0
0.0 0.0 0.0
0.0 0.0 0.0
0.0 0.0 0.0
0.0 0.0 0.0
0.0 0.0 0.0
0.0 0.0 0.0
0.0 0.0 0.0
0.0 0.0 0.0
0.0 0.0 0.0
0.0 0.0 0.0
0.0 0.0 0.0
0.0 0.0 0.0
0.0 0.0 0.0
0.0 0.0 0.0
0.0 0.0 0.0
0.871698857725 0.113366447367 0.0
1.30428614819 0.0170131012906 0.0
1.35295925507 0.01118455282 0.0
1.15466679352 -0.0623517061715 0.0
0.0 0.0 0.0
0.0 0.0 0.0
0.0 0.0 0.0
0.0 0.0 0.0
0.0 0.0 0.0
0.0 0.0 0.0
0.0 0.0 0.0
0.0 0.0 0.0
0.0 0.0 0.0
0.0 0.0 0.0
0.0 0.0 0.0
0.0 0.0 0.0
0.0 0.0 0.0
0.0 0.0 0.0
0.0 0.0 0.0
0.0 0.0 0.0
0.0 0.0 0.0
0.0 0.0 0.0
0.0 0.0 0.0
0.0 0.0 0.0
0.0 0.0 0.0
0.0 0.0 0.0
0.0 0.0 0.0
0.0 0.0 0.0
0.0 0.0 0.0
0.0 0.0 0.0
0.0 0.0 0.0
0.0 0.0 0.0
0.0 0.0 0.0
0.0 0.0 0.0
0.0 0.0 0.0
0.0 0.0 0.0
0.0 0.0 0.0
0.0 0.0 0.0
0.0 0.0 0.0
0.0 0.0 0.0
0.0 0.0 0.0
0.0 0.0 0.0
0.0 0.0 0.0
0.0 0.0 0.0
0.0 0.0 0.0
0.0 0.0 0.0
0.0 0.0 0.0
0.0 0.0 0.0
0.0 0.0 0.0
0.0 0.0 0.0
0.0 0.0 0.0
0.0 0.0 0.0
0.0 0.0 0.0
1.0 0.0 0.0
1.0 0.0 0.0
1.0 0.0 0.0
1.0 0.0 0.0
1.23888720289 0.0121595778862 0.0
1.35171679656 -0.0502667030943 0.0
1.32037376982 -0.127598028223 0.0
1.30341877105 -0.0828523459183 0.0
1.32531779671 -0.0315177577998 0.0
1.349772107 -0.00842865850722 0.0
1.33423158947 0.120061034239 0.0
1.32861752088 0.1091398582 0.0
1.30326561545 0.0303805380954 0.0
1.37629978266 0.0212201349094 0.0
1.31605704466 -0.111349975149 0.0
1.33087633204 -0.103910032601 0.0
1.35194463499 -0.0541701809254 0.0
1.31199671903 -0.0426129301574 0.0
1.31128791753 0.109862843852 0.0
1.30695345769 0.063009125967 0.0
1.27407391222 0.049735594664 0.0
1.04895304196 -0.0170348121453 0.0
1.20107542791 0.0481275052181 0.0
1.27257549052 -0.111549218398 0.0
1.27468293282 -0.090638155121 0.0
1.34786109188 -0.0455698249074 0.0
1.2492093951 -0.0593969281752 0.0
1.28674554141 0.064373029367 0.0
1.2607775968 0.0744643290558 0.0
1.30243262029 0.114779950691 0.0
1.23747015583 0.0902281195597 0.0
1.30090023052 -0.109638465531 0.0
1.1932176823 -0.0604884032799 0.0
1.28104632232 -0.0581433661208 0.0
1.33030648709 -0.119910872409 0.0
1.24399776375 -0.0988613178384 0.0
1.29328846782 -0.0740145000772 0.0
1.38559575089 -0.0565825507702 0.0
1.28173350755 -0.1088973119 0.0
1.31959064874 0.0605519616065 0.0
1.25564459762 -0.109201551472 0.0
1.22900050594 -0.0831441229518 0.0
1.32903226691 0.0956429811658 0.0
1.24196491054 0.0526826137782 0.0
1.20684388114 -0.043549190003 0.0
1.30018016107 -0.0636877063816 0.0
1.2240837197 0.114398899217 0.0
1.30233426251 0.122442601428 0.0
1.2480071332 0.208003688759 0.0
1.25631387881 0.0279012171484 0.0
1.24907049114 0.0180651685015 0.0
1.18502828637 0.0983256904243 0.0
1.19142408881 0.0342124345893 0.0
1.22207604173 0.0920651213763 0.0
1.07690671275 -0.026214454353 0.0
1.23734396352 -0.0672342449033 0.0
1.16992571073 -0.128770624145 0.0
1.14210135246 -0.0943802383034 0.0
1.19757469642 -0.12485000218 0.0
1.22284269629 -0.0993540298519 0.0
1.32486174939 0.0375091284179 0.0
1.12919692836 -0.0293941895255 0.0
1.16560586772 -0.0298845223517 0.0
1.24316652505 -0.0329831035177 0.0
1.21430947526 0.0258694605213 0.0
1.14710664064 0.00324468375959 0.0
1.13669950338 0.116890944417 0.0
1.16872376799 0.110696613223 0.0
1.11004670316 0.00908777927375 0.0
1.23630667127 0.021923451611 0.0
1.16578310607 -0.102774140027 0.0
1.19966213028 -0.137657737519 0.0
1.01936411901 0.105646573595 0.0
1.10444857661 0.107999460378 0.0
1.13384187834 0.0316895541671 0.0
0.989508933208 0.0134118101607 0.0
1.10206592447 -0.0940641328563 0.0
1.06745612117 -0.101197397136 0.0
1.00326133692 -0.0556122943779 0.0
1.05354055143 -0.0291509155615 0.0
0.954691492097 0.0967962996497 0.0
0.942305695877 0.0618451496658 0.0
1.12122022339 -0.028519985376 0.0
1.01623685291 0.0610133218512 0.0
1.00022631966 -0.00931993636185 0.0
1.19253109353 0.0603716396408 0.0
1.03776512652 0.0521601040879 0.0
1.37389982737 0.024085563923 0.0
1.05444976734 0.0103529196617 0.0
1.07720101447 0.129461441271 0.0
1.38167604982 0.00557057037101 0.0
1.15651310464 0.0544388397312 0.0
0.752551248153 -0.00885295750903 0.0
0.983117813548 -0.0101811920713 0.0
0.749461253301 -0.0116534664288 0.0
1.01070010427 -0.0730909608799 0.0
0.925696676284 0.0768222134499 0.0
1.02227922056 0.0871340757173 0.0
1.03512846477 -0.115277013063 0.0
1.02900594753 -0.0712072181049 0.0
1.00293451757 0.0402942793219 0.0
0.926759221364 0.0761559501864 0.0
0.970609104484 -0.093193735796 0.0
0.909840914729 -0.0727752342071 0.0
1.05304547385 -0.0296291393 0.0
0.89632214128 -0.0573182472107 0.0
0.99863296247 -0.0630875101649 0.0
1.01141269798 -0.0962635476835 0.0
0.905112008748 -0.0658878029161 0.0
0.920103169704 -0.0848981082374 0.0
0.950554383402 -0.0737976210865 0.0
0.966900282665 -0.0369697338933 0.0
0.872601587161 -0.0894088304838 0.0
1.05431663704 -0.0501750329299 0.0
0.884077673272 -0.0697217628628 0.0
1.30703654926 -0.0115416747134 0.0
1.29702770114 0.122780495632 0.0
1.05354510704 0.0633714682204 0.0
0.855500739447 0.0965055263435 0.0
1.34265640988 0.0834796057724 0.0
1.35842915988 0.103258929193 0.0
1.02766953262 0.0744459421696 0.0
0.883012942721 0.0639940564873 0.0
1.05056526434 -0.0521907860557 0.0
0.92211633668 -0.0818310161353 0.0
0.921725115166 -0.0732142877605 0.0
1.04106721224 -0.0550336552493 0.0
0.903835583058 0.0516913258258 0.0
1.37241238538 0.0887277321011 0.0
1.33624202115 0.0839201666848 0.0
1.36136899941 -0.0778562384075 0.0
1.35184165048 -0.0836451757355 0.0
1.33610950692 -0.0643546647276 0.0
1.3519596551 -0.101689909217 0.0
1.34210859203 0.0821041361208 0.0
1.34234690018 -0.124961530478 0.0
1.33829629846 -0.070513521493 0.0
1.31634876325 -0.0707757239562 0.0
1.30725103818 -0.0275529687035 0.0
1.34239690206 -0.12047782593 0.0
1.34351335834 -0.0923180608351 0.0
1.3492624477 0.0162503788883 0.0
1.3552548524 -0.0457249299885 0.0
1.34942108654 -0.086079040551 0.0
1.36438026036 0.0522023482367 0.0
1.33789588021 0.021869348715 0.0
1.34732881561 -0.109427965456 0.0
1.33778797294 -0.0971686423022 0.0
1.34703561677 -0.0097125707589 0.0
1.34766233211 -0.0336711239586 0.0
1.3337471874 0.128239543375 0.0
1.34939805035 0.116779391033 0.0
0.869684573366 -0.0114169055891 0.0
0.974508027465 -0.096799331669 0.0
1.01133761438 -0.0723218536604 0.0
0.855414736166 0.0471359720104 0.0
1.09229664139 0.00905007411044 0.0
1.06448519958 -0.0152507342992 0.0
0.880532123968 -0.0312480427235 0.0
0.961618313094 0.094580228542 0.0
0.951383820031 0.107374792969 0.0
0.981141604214 0.12399487751 0.0
0.894775313275 -0.0573992836703 0.0
1.25682175707 0.26161995506 0.0
1.10130877746 0.0112832295834 0.0
1.06099176498 -0.0596787036087 0.0
1.01319206227 -0.0575455375856 0.0
1.33297086463 -0.0276505474865 0.0
1.12892922225 -0.00711470539447 0.0
0.966000030128 -0.0721435210684 0.0
0.826399487188 -0.0769668460044 0.0
0.79013545872 0.068181994375 0.0
0.974241257636 0.0331742469511 0.0
0.784575457275 -0.0374348900222 0.0
0.913118169564 -0.00133154147777 0.0
0.906002594957 0.080507201087 0.0
0.862434310619 0.0782356080681 0.0
0.929005156555 -0.0375311472786 0.0
0.771542850037 -0.0284205770609 0.0
1.30618664896 -0.129787539064 0.0
1.34150141133 -0.0839891780274 0.0
0.879519395672 -0.0985488687722 0.0
1.34305812124 -0.0534308437255 0.0
1.29878904039 -0.029318249789 0.0
0.925172607281 0.0780324303932 0.0
1.10912842869 0.194307401186 0.0
1.29757908123 0.102962837262 0.0
1.2933661755 0.105966521864 0.0
1.0641474751 -0.00991986129159 0.0
0.890132485976 0.0328083245991 0.0
1.33563047347 0.0640106085223 0.0
1.28185771172 0.058278930651 0.0
1.29757939114 -0.0943350502174 0.0
1.35119587429 -0.111670950244 0.0
1.01334119075 0.120815571289 0.0
1.28996984598 -0.0824100050057 0.0
1.30446170674 0.000188293509847 0.0
1.22727136608 0.0881782962535 0.0
1.24276980538 -0.116613784426 0.0
1.24576396299 -0.092794599954 0.0
1.31733196126 0.116736413144 0.0
1.30505175666 -0.102150201222 0.0
1.22423836865 -0.0602310762551 0.0
1.26258706549 0.0999659928665 0.0
1.29883036572 0.117708064116 0.0
1.28946755767 -0.0955929989586 0.0
1.2260128483 -0.0873424453848 0.0
1.21957314812 0.0699828503445 0.0
1.34759439886 0.0823667325251 0.0
1.26275382339 -0.135075651099 0.0
1.20937421503 -0.0721201798594 0.0
1.32993160646 -0.00228871276385 0.0
1.333892642 0.025024823478 0.0
1.25382100089 0.0144475975613 0.0
1.29945615397 -0.0456829101058 0.0
1.24776439317 -0.0786330180039 0.0
1.17125098597 -0.0433441064622 0.0
1.29949845489 -0.08702494249 0.0
1.24332057808 -0.116641553901 0.0
1.25740802366 -0.113714984223 0.0
1.21293857739 -0.0015976660796 0.0
1.34644801907 -0.0325757946044 0.0
1.34589125883 0.123598159515 0.0
1.29275082195 -0.00291686915454 0.0
1.26469743296 0.135905211311 0.0
1.29398127622 0.124461739572 0.0
1.2778184469 0.0430927749964 0.0
1.25117362067 0.0922052104202 0.0
1.12279529655 -0.0789780488306 0.0
1.2348030159 -0.0356619011103 0.0
1.30187910778 0.143850582124 0.0
1.31430765337 0.0840282383707 0.0
1.31229416409 0.0376518072999 0.0
1.29743036738 0.0312401434748 0.0
1.08894105629 0.147577227526 0.0
0.961405026544 0.0296701969888 0.0
1.12931579704 0.246818814521 0.0
0.984327726729 -0.0500012262439 0.0
1.25659266286 0.0399360197483 0.0
1.27715289284 -0.0645409976488 0.0
1.35340932121 0.0139267952275 0.0
1.32468431194 -0.145012968416 0.0
1.3341068463 -0.0689121678427 0.0
0.819987129325 0.0571730860148 0.0
0.579220342269 0.0693530172991 0.0
1.0153563961 -0.0518672492687 0.0
0.959016154892 -0.017259847688 0.0
1.327635793 -0.00168156246721 0.0
1.32757460986 0.0346720080419 0.0
0.805316789569 -0.00211453960147 0.0
0.65231063737 -0.0703005857629 0.0
0.666084771086 -0.108266920672 0.0
1.31846318868 0.136608363989 0.0
1.31140169511 0.103159319204 0.0
1.28488382277 0.0795074883684 0.0
1.34033420115 -0.0449190194049 0.0
1.34085012875 0.0256330456508 0.0
1.3191510867 -0.0158471779685 0.0
1.34193771567 -0.112981495221 0.0
1.33176644785 -0.108626381232 0.0
0.591737187602 0.0512578109007 0.0
0.832085685704 -0.00619031419049 0.0
1.31885001132 -0.00786634733068 0.0
0.773900472325 0.0927654318498 0.0
0.724233372402 0.0640471103545 0.0
0.868902566996 0.00923955798082 0.0
0.575567025167 -0.000848493343751 0.0
0.842337125077 -0.00561702765544 0.0
0.573242370561 -0.0730424877569 0.0
0.799032034554 -0.0863342112762 0.0
0.763786770055 -0.0684518125173 0.0
0.801060718177 -0.0443251143999 0.0
0.745394197684 -0.115025205927 0.0
0.948380378666 -0.0132631251516 0.0
0.629241657258 -0.0342124677554 0.0
0.383301241703 0.0389031672351 0.0
0.960662919056 -0.0271366092804 0.0
0.668651044829 -0.00761367090445 0.0
0.889404716307 0.00368820512442 0.0

SCALARS scalar1 double
LOOKUP_TABLE default
1.53268182153
5.1512031935
8.50523150024
4.05767887171
-8.11813542694
-2.59095435289
8.92575767459
9.27242219542
7.89918134633
7.42574680881
6.55534101861
6.5757563316
6.41580772847
5.63524582319
5.12498917016
5.4653405992
5.88763505454
6.77200900114
7.76519551003
7.80985597148
7.99775590981
8.48394080594
7.62036791727
6.99028486011
6.77224099531
6.01722629079
5.59207309036
5.95436882056
6.66603501053
7.19152499496
9.72916229264
6.18415694812
10.2873192197
8.39507167646
8.39079700689
7.89158218582
6.88161286728
6.35043592508
6.12204609711
5.70229834972
5.82160059006
6.47960048413
6.87679408045
7.4808915219
8.05849017541
8.98996370493
7.19321131106
7.0503779898
6.55454773376
5.5675949092
4.71569135301
4.34762438597
4.81122317039
4.05159512013
3.46991241019
0.414233334345
-0.42902953351
-2.15290049939
-9.15659696261
-8.835526611
-8.80692683315
-7.91122755462
-7.04505770831
-6.37480605629
-6.50669280388
-5.66430016546
-4.75949151162
-4.94482062912
-5.52221525412
-5.87963730264
-6.61312029541
-6.52914265724
-6.97941842123
-7.67669627123
-6.76300336835
-5.80802451326
-5.92527170864
-6.84799514755
-4.66186028076
-5.60601128072
-5.65150120411
-5.93640785629
-6.39270848526
-5.78610002975
-8.97085721365
-8.01032315189
-7.11387009634
-6.56896568954
-6.04864118511
-5.27983214525
-5.22448208431
-4.76808419215
-4.69852889315
-5.81374172517
-6.55421095975
-6.45248309763
-7.04039176076
-8.19988800922
-7.56978119197
-7.19369398329
-7.60467308872
-6.55918100597
-6.45205862067
-5.38154020196
-6.094161471
-9.46635511625
-11.5113466387
3.75307164822
0.2657773329
0.16146734246
-1.41211901859
0.293543800261
0.123603387529
0.276206627439
0.360168638746
0.0577670043767
0.214347816746
0.137659133668
-0.0308806210076
0.194234486222
0.123164402336
0.336877909294
0.231713570193
0.220629769524
0.059812952381
-0.110776498635
-0.152711074435
1.7806203912
0.11135516388
-0.839867340344
-0.665909809002
-0.931593171509
-0.746527721265
-0.668626832569
-0.814583317986
-0.668699369503
-0.664428299814
-0.843432092747
0.969182004206
0.987550851203
-0.532457665222
-0.613961671734
0.892434455095
0.999586314067
0.0203257517796
-0.466495991715
1.0600641576
1.06067176583
0.749135612007
1.17841628539
0.591229661063
0.883874833352
1.10161690659
0.849384797213
1.08940214104
1.41621410335
-0.99974134361
-1.16983748051
-1.07855795852
0.427637530526
0.178768909397
1.16321256076
2.2564587887
1.60660042095
1.65096578965
-1.66895307059
-1.49264470557
-2.97245385629
-1.50796288712
1.12396110396
2.25334153647
-2.20226677481
-1.34992640806
-1.64103871289
-1.50706270546
-1.40216272099
-2.09737267814
-2.04734495886
-1.92074717197
3.30549566416
2.46930254812
1.51537710789
4.38130390333
1.96946075522
2.64194217335
3.7957002535
2.09443903115
4.44513546719
-3.43410969535
-1.44861689959
-1.68600872942
-2.90198683893
0.243758769183
0.407804411202
-0.0598001311828
-2.06225164858
-5.46810830959
-0.00899508719462
0.366168282257
5.8374164466
1.90248463376
4.83443794925
0.49176339002
-3.34247961433
-2.24274841047
-2.58767242548
-3.59104818763
-1.99230908143
-3.92365783442
-2.63515384596
-4.41731340472
-2.15538352486
-4.71014019591
-2.39880993418
2.33301199206
3.55904760214
3.58062898929
2.43871624639
2.08050545214
4.25065078818
1.96278255295
4.28030917803
-0.0799892848914
-0.190817654643
2.25358285461
4.87137670382
-0.143976676343
0.0322430646555
2.41688871564
4.80909565454
2.00975891647
4.28852045206
3.99117432293
2.3475372415
5.02222903853
-0.0625403590011
-0.0143438239256
0.0782422910555
0.121695779914
0.088159008723
0.129748588489
-0.0528901795115
0.125435971059
0.246376656584
0.25699946668
0.275194013249
0.153922371469
0.0758238758628
0.0743393222217
0.137151751123
0.0344547530936
0.097565410596
-0.0996075355449
0.218824008061
0.117038287748
0.125354833246
0.0384640764729
0.0245928883476
-0.104051999072
4.84552333302
3.36283941339
2.65142572693
5.40001701233
1.7157112266
1.85603606155
4.91929804117
3.10498619853
4.19556388514
-2.63774752574
-4.09211242399
0.397688266153
-2.76041128959
-1.95783278996
-4.78467388003
1.28110625604
0.281022884213
-3.15516456533
-4.73263006252
-4.76320534463
-2.35829929112
-5.17179197658
-2.44086169927
-2.76381142975
-3.90437968886
-2.37414235323
-5.63410126662
-0.313421472861
0.0485219954947
-3.589320956
-0.563563453105
-0.361858561307
-3.11922128152
2.72377496495
-0.448968874366
-0.665858670752
2.11109520764
-4.02473795028
-0.368418269038
-0.614981964641
-0.487430254918
-0.336841206028
3.51541301971
-0.385525684431
-0.619804722852
-0.716871448556
0.857245335891
1.03377524337
0.566204865308
1.0241941712
0.707983071964
0.807483197854
0.953391304716
1.25701936331
0.906552206233
0.708362946566
1.67285775366
0.996503251474
0.927455138747
1.56235656622
1.23472114345
0.488705289292
0.821177933783
0.756612132492
0.862039472887
0.769702157618
1.14378276034
0.796667710388
0.868574287253
1.07738880597
0.747660510713
-0.547201616858
1.22629740418
0.726151419601
-0.391154852374
-0.612575661944
2.62042043816
0.564146893294
0.189534279886
-0.0990825683229
-0.0302272857206
-0.967646682049
2.18578749445
-3.02546881398
-5.3432664954
-0.153238008984
1.28647696688
-0.427884638612
0.321579745443
-0.17089123422
0.0457862146615
-4.90982316024
6.04780915822
2.61124461767
-2.65843388082
-0.406046863344
-0.231059198449
-3.01197710202
-4.79871127227
-4.71284863871
-0.301770052362
-0.519699088868
-0.532725031254
-0.319872459726
-0.20660390659
-0.381489052351
-0.142522745209
-0.328803029441
-5.68723410368
-2.61175562024
-0.254387328553
-3.99090019952
-3.90905117615
-2.88874815403
-6.01742224568
2.66750485335
5.88496252739
4.06843842831
3.99675818644
-4.39418915382
-4.83008698595
2.70535345101
5.99078010772
5.02487020046
1.32288735355
-6.6986379738
-2.98686567079

SCALARS scalar2 double
LOOKUP_TABLE default
1.53268182153
5.1512031935
8.50523150024
4.05767887171
-8.11813542694
-2.59095435289
8.92575767459
9.27242219542
7.89918134633
7.42574680881
6.55534101861
6.5757563316
6.41580772847
5.63524582319
5.12498917016
5.4653405992
5.88763505454
6.77200900114
7.76519551003
7.80985597148
7.99775590981
8.48394080594
7.62036791727
6.99028486011
6.77224099531
6.01722629079
5.59207309036
5.95436882056
6.66603501053
7.19152499496
9.72916229264
6.18415694812
10.2873192197
8.39507167646
8.39079700689
7.89158218582
6.88161286728
6.35043592508
6.12204609711
5.70229834972
5.82160059006
6.47960048413
6.87679408045
7.4808915219
8.05849017541
8.98996370493
7.19321131106
7.0503779898
6.55454773376
5.5675949092
4.71569135301
4.34762438597
4.81122317039
4.05159512013
3.46991241019
0.414233334345
-0.42902953351
-2.15290049939
-9.15659696261
-8.835526611
-8.80692683315
-7.91122755462
-7.04505770831
-6.37480605629
-6.50669280388
-5.66430016546
-4.75949151162
-4.94482062912
-5.52221525412
-5.87963730264
-6.61312029541
-6.52914265724
-6.97941842123
-7.67669627123
-6.76300336835
-5.80802451326
-5.92527170864
-6.84799514755
-4.66186028076
-5.60601128072
-5.65150120411
-5.93640785629
-6.39270848526
-5.78610002975
-8.97085721365
-8.01032315189
-7.11387009634
-6.56896568954
-6.04864118511
-5.27983214525
-5.22448208431
-4.76808419215
-4.69852889315
-5.81374172517
-6.55421095975
-6.45248309763
-7.04039176076
-8.19988800922
-7.56978119197
-7.19369398329
-7.60467308872
-6.55918100597
-6.45205862067
-5.38154020196
-6.094161471
-9.46635511625
-11.5113466387
3.75307164822
0.2657773329
0.16146734246
-1.41211901859
0.293543800261
0.123603387529
0.276206627439
0.360168638746
0.0577670043767
0.214347816746
0.137659133668
-0.0308806210076
0.194234486222
0.123164402336
0.336877909294
0.231713570193
0.220629769524
0.059812952381
-0.110776498635
-0.152711074435
1.7806203912
0.11135516388
-0.839867340344
-0.665909809002
-0.931593171509
-0.746527721265
-0.668626832569
-0.814583317986
-0.668699369503
-0.664428299814
-0.843432092747
0.969182004206
0.987550851203
-0.532457665222
-0.613961671734
0.892434455095
0.999586314067
0.0203257517796
-0.466495991715
1.0600641576
1.06067176583
0.749135612007
1.17841628539
0.591229661063
0.883874833352
1.10161690659
0.849384797213
1.08940214104
1.41621410335
-0.99974134361
-1.16983748051
-1.07855795852
0.427637530526
0.178768909397
1.16321256076
2.2564587887
1.60660042095
1.65096578965
-1.66895307059
-1.49264470557
-2.97245385629
-1.50796288712
1.12396110396
2.25334153647
-2.20226677481
-1.34992640806
-1.64103871289
-1.50706270546
-1.40216272099
-2.09737267814
-2.04734495886
-1.92074717197
3.30549566416
2.46930254812
1.51537710789
4.38130390333
1.96946075522
2.64194217335
3.7957002535
2.09443903115
4.44513546719
-3.43410969535
-1.44861689959
-1.68600872942
-2.90198683893
0.243758769183
0.407804411202
-0.0598001311828
-2.06225164858
-5.46810830959
-0.00899508719462
0.366168282257
5.8374164466
1.90248463376
4.83443794925
0.49176339002
-3.34247961433
-2.24274841047
-2.58767242548
-3.59104818763
-1.99230908143
-3.92365783442
-2.63515384596
-4.41731340472
-2.15538352486
-4.71014019591
-2.39880993418
2.33301199206
3.55904760214
3.58062898929
2.43871624639
2.08050545214
4.25065078818
1.96278255295
4.28030917803
-0.0799892848914