# vtk DataFile Version 2.0
2D Simulation Python
ASCII
DATASET UNSTRUCTURED_GRID
FIELD FieldData 1
NODES 1 2 int
386 659

POINTS 386 double
0.0 1.0 0.0
1.725 0.9917131702036277 0.0
8.275 1.0082868297963719 0.0
10.0 1.0 0.0
10.0 -1.3346080967681145e-17 0.0
0.0 0.0 0.0
0.1916666666663293 1.0061726397389434 0.0
0.3833333333324708 1.010174068123591 0.0
0.574999999998553 1.0105967922320238 0.0
0.7666666666645966 1.0072921198640297 0.0
0.9583333333312576 1.0014224616690062 0.0
1.149999999998384 0.9950524559634347 0.0
1.341666666665662 0.9904227371112088 0.0
1.533333333332819 0.9891617977126455 0.0
1.92348484848444 0.9974055236691097 0.0
2.121969696968978 1.0040744086045057 0.0
2.320454545453434 1.009209732344444 0.0
2.518939393937826 1.0108786172671387 0.0
2.717424242422235 1.0084529140126364 0.0
2.915909090906411 1.0028456297787665 0.0
3.1143939393908 0.9961672827652476 0.0
3.312878787875129 0.9909315270563591 0.0
3.511363636359531 0.9891090417281125 0.0
3.709848484843827 0.9913857895913032 0.0
3.90833333332816 0.9969048285682613 0.0
4.106818181812215 1.0035888549732623 0.0
4.305303030296804 1.008922077063505 0.0
4.503787878781365 1.010897130522273 0.0
4.702272727265711 1.0087706276245438 0.0
4.900757575750005 1.003342959946756 0.0
5.099242424235156 0.9966570400537276 0.0
5.297727272720327 0.9912293723757383 0.0
5.496212121205663 0.9891028694777333 0.0
5.694696969690998 0.9910779229362542 0.0
5.89318181817668 0.9964111450263796 0.0
6.09166666666213 1.0030951714314194 0.0
6.290151515147423 1.0086142104085132 0.0
6.488636363633031 1.01089095827188 0.0
6.687121212118713 1.0090684729437571 0.0
6.885606060604342 1.003832717234908 0.0
7.084090909089381 0.9971543702213733 0.0
7.282575757574369 0.9915470859874372 0.0
7.481060606059355 0.9891213827328655 0.0
7.679545454544343 0.9907902676555143 0.0
7.878030303029329 0.9959255913954396 0.0
8.076515151514705 1.0025944763308616 0.0
8.46666666666447 1.0108382022873446 0.0
8.658333333329285 1.0095772628888728 0.0
8.84999999999549 1.0049475440367537 0.0
9.041666666661694 0.9985775383312331 0.0
9.233333333327899 0.9927078801361613 0.0
9.42499999999549 0.9894032077680219 0.0
9.616666666663775 0.9898259318763639 0.0
9.808333333331985 0.9938273602610086 0.0
10.0 0.7999999999999998 0.0
10.0 0.6000000000013869 0.0
10.0 0.4000000000016644 0.0
10.0 0.2000000000008322 0.0
9.799999999999999 -0.006405626156183182 0.0
9.6 -0.01036452083992967 0.0
9.399999999999999 -0.010364520839929644 0.0
9.2 -0.006405626156183104 0.0
8.999999999999998 8.944572484506896e-17 0.0
8.799999999999997 0.006405626156183229 0.0
8.599999999999998 0.010364520839929697 0.0
8.399999999999997 0.010364520839929635 0.0
8.199999999999998 0.0064056261561830806 0.0
7.999999999999997 -8.811111674830064e-17 0.0
7.799999999999997 -0.006405626156183229 0.0
7.599999999999998 -0.010364520839929697 0.0
7.399999999999997 -0.010364520839929635 0.0
7.199999999999998 -0.006405626156183104 0.0
6.999999999999997 8.677650865153265e-17 0.0
6.799999999999997 0.006405626156183246 0.0
6.599999999999998 0.010364520839929697 0.0
6.399999999999997 0.010364520839929597 0.0
6.199999999999998 0.006405626156183099 0.0
5.999999999999997 -8.544190055476453e-17 0.0
5.799999999999998 -0.00640562615618322 0.0
5.599999999999998 -0.010364520839929697 0.0
5.399999999999999 -0.010364520839929668 0.0
5.199999999999998 -0.006405626156183099 0.0
4.999999999999999 4.539016647091865e-17 0.0
4.799999999999999 0.006405626156183146 0.0
4.599999999999999 0.010364520839929708 0.0
4.399999999999999 0.010364520839929633 0.0
4.199999999999999 0.006405626156183117 0.0
3.999999999999999 -4.405555837415032e-17 0.0
3.799999999999999 -0.006405626156183151 0.0
3.599999999999999 -0.010364520839929675 0.0
3.399999999999998 -0.010364520839929633 0.0
3.199999999999998 -0.006405626156183062 0.0
2.999999999999999 4.272095027738226e-17 0.0
2.799999999999998 0.0064056261561831924 0.0
2.599999999999998 0.010364520839929727 0.0
2.399999999999999 0.010364520839929652 0.0
2.199999999999999 0.006405626156183097 0.0
1.999999999999998 -7.042418667092269e-17 0.0
1.799999999999999 -0.0064056261561831924 0.0
1.6 -0.010364520839929647 0.0
1.4 -0.010364520839929647 0.0
1.199999999999999 -0.006405626156183095 0.0
0.9999999999999982 6.424993782576982e-17 0.0
0.7999999999999989 0.0064056261561831924 0.0
0.6000000000000014 0.010364520839929652 0.0
0.3999999999999986 0.010364520839929652 0.0
0.1999999999999993 0.006405626156183113 0.0
0.0 0.1999999999995579 0.0
0.0 0.3999999999989749 0.0
0.0 0.5999999999989468 0.0
0.0 0.7999999999994734 0.0
0.6588466721759039 0.5522945707449111 0.0
9.341152799460332 0.5396437738140495 0.0
8.741432843896364 0.5729659256930124 0.0
1.2585641980421947 0.561957676620346 0.0
8.16284145009527 0.5761773657526617 0.0
1.8371433498474354 0.5694295788493341 0.0
2.4304413608007382 0.6050043764679619 0.0
7.569477443389603 0.5906056084190865 0.0
3.030492246438686 0.6014778161523783 0.0
6.969026184841637 0.6009667192631956 0.0
3.6286638988492967 0.594520471185614 0.0
6.36798266986902 0.5970155034449554 0.0
4.229400771726892 0.5959835706963379 0.0
5.795134235635518 0.5223294868092656 0.0
4.802478518885811 0.5324340802612912 0.0
5.298820266747482 0.5127292620582973 0.0
9.677454509477611 0.6950373959959477 0.0
0.3225453491503019 0.7059764833367785 0.0
4.530525394779967 0.34490994526632685 0.0
3.9188227626425607 0.37063635245151383 0.0
6.067964737189273 0.33908050615108587 0.0
3.3194115857659896 0.37144597238410526 0.0
6.679655353688533 0.3770141278054957 0.0
7.878986044467253 0.36503254895777637 0.0
2.1209823989637804 0.3698305666547676 0.0
2.720110294907047 0.38060895839893705 0.0
7.279714263256574 0.3698368326698112 0.0
9.03727024173049 0.6717252019773909 0.0
0.9627286494914216 0.6733551716017666 0.0
1.5320838479000165 0.3542231043964962 0.0
8.467910220523965 0.3664678325691211 0.0
8.458294142774527 0.6868391122932034 0.0
1.541700168305412 0.673164114386669 0.0
0.9793998675471793 0.3658866928105509 0.0
9.02059889208555 0.3647608395203156 0.0
4.527199775136361 0.6975096445687622 0.0
3.9214025971198607 0.7000033085234301 0.0
6.069685660353395 0.6912703077249811 0.0
2.1183770002255344 0.6945159698241345 0.0
7.88159449975994 0.6893087280107256 0.0
3.3233611531370446 0.6990633404669623 0.0
6.675556617937324 0.7072534548617875 0.0
2.72537116429701 0.7094860956715858 0.0
7.274462755605712 0.6980359128619978 0.0
0.33283957811614917 0.3088599287014828 0.0
9.66716026757529 0.2984051590386526 0.0
5.581324219995393 0.3136937114504917 0.0
5.017220607393469 0.3206813222977011 0.0
5.509457727605675 0.6864287160766074 0.0
5.087392122019394 0.6918606305135188 0.0
0.6619005093994269 0.741233666471092 0.0
9.338099094704408 0.7298737800091508 0.0
8.747624310934752 0.7447629596236048 0.0
1.2523735192667127 0.7353329575947418 0.0
8.670387985271178 0.2810841241580358 0.0
1.3296091197884066 0.2711178113907617 0.0
0.680401593760089 0.242076388882422 0.0
9.31959801356349 0.23177306087355104 0.0
8.1699079968975 0.7480461285988604 0.0
1.830081044015438 0.7417335146250882 0.0
8.082241617216328 0.2794149781316772 0.0
1.9177431317783171 0.27686121838022526 0.0
7.485180592128223 0.2795073959583848 0.0
2.514735567855545 0.29163350595984505 0.0
6.885160963518395 0.28772546698652274 0.0
3.114404868187956 0.28596706322358345 0.0
6.284935231342884 0.27518277494860305 0.0
3.7137890439664556 0.2817452233491843 0.0
2.422449309127335 0.8191853644127217 0.0
7.577503963951 0.8049371889636433 0.0
3.021605110979151 0.8144246429203462 0.0
6.978106160439334 0.8143298304793695 0.0
3.618459649303827 0.8075645642553628 0.0
6.3794749689642 0.8162635068404759 0.0
4.216884897072553 0.8144699632214136 0.0
5.793598400132087 0.83830927462696 0.0
4.802574982299521 0.8472888795730104 0.0
5.2995793242088425 0.17932440080453727 0.0
4.313878968230198 0.2762129303986547 0.0
4.743204933911935 0.24300266241251958 0.0
5.855724986020281 0.23424971544934234 0.0
5.298372066438236 0.7105388622144507 0.0
0.19483726776350635 0.5060377935806507 0.0
9.805162635635202 0.4982293577202799 0.0
9.486963243159638 0.15560565559926842 0.0
0.5130365845902511 0.16907914095404858 0.0
9.568925521164184 0.505457340091932 0.0
0.43107421502837995 0.5189623542446211 0.0
9.509138635935146 0.8293312213841229 0.0
0.4908612052941096 0.8433720832669875 0.0
9.823684716681765 0.8241474730614615 0.0
0.17631523677643918 0.8313316899766445 0.0
7.6906756216448535 0.18724826238406617 0.0
2.309290976057377 0.19818159557311493 0.0
8.876663735259712 0.19417633747629898 0.0
1.1233350733129888 0.18944667277803232 0.0
7.090880438809195 0.19285851112398458 0.0
2.9089430480573397 0.1975281377192393 0.0
6.491076251558715 0.1960648224954622 0.0
3.5085323267034987 0.18896971207509247 0.0
1.7133214029571169 0.18316075932462048 0.0
8.28667245241933 0.19311505549159114 0.0
4.108122729064774 0.19212933214088668 0.0
8.577560101809693 0.8354662801557161 0.0
1.4224373956484329 0.8217029220140598 0.0
8.92333297665338 0.8279579158148554 0.0
1.0766660706019946 0.8246418986033363 0.0
0.8418681022757388 0.8282598287079576 0.0
9.15813141672003 0.8215594375736808 0.0
8.345850371699944 0.8359325371010106 0.0
1.6541447900778974 0.8235000060981834 0.0
5.592449090365934 0.49614917067319625 0.0
5.005265140554196 0.5039211671005652 0.0
7.789405108097991 0.834880277680277 0.0
2.2105728178333983 0.8439110157205596 0.0
7.776865076967869 0.5471887263759497 0.0
2.2230886734380713 0.5567729283124662 0.0
2.815276574429761 0.8488346105206206 0.0
7.184590602252427 0.8401875516762309 0.0
3.4120552053371647 0.8379269818606816 0.0
6.587034817284343 0.8494063717035673 0.0
4.009202335057703 0.8427935954374995 0.0
5.98483228393109 0.8426034253322112 0.0
4.611344717676495 0.8501878123009652 0.0
7.175166163325129 0.5556309847655915 0.0
2.8245670238852836 0.5645705308458775 0.0
6.575204015931472 0.5615501392258082 0.0
3.4230889069773656 0.5539942340869166 0.0
5.978030920090112 0.5300459677435048 0.0
4.0224080064771774 0.5555581774353421 0.0
4.619575537836485 0.5386907052590852 0.0
8.548997314164394 0.5479486529031161 0.0
[...]
POINT_DATA 386
VECTORS vector double
1.0 0.0 0.0
0.0 0.0 0.0
0.0 0.0 0.0
0.0 0.0 0.0
0.0 0.0 0.0
1.0 0.0 0.0
0.0 0.0 0.0
0.0 0.0 0.0
0.0 0.0 0.0
0.0 0.0 0.0
0.0 0.0 0.0
0.0 0.0 0.0
0.0 0.0 0.0
0.0 0.0 0.0
0.0 0.0 0.0
0.0 0.0 0.0
0.0 0.0 0.0
0.0 0.0 0.0
0.0 0.0 0.0
0.0 0.0 0.0
0.0 0.0 0.0
0.0 0.0 0.0
0.0 0.0 0.0
0.0 0.0 0.0
0.0 0.0 0.0
0.0 0.0 0.0
0.0 0.0 0.0
0.0 0.0 0.0
0.0 0.0 0.0
0.0 0.0 0.0
0.0 0.0 0.0
0.0 0.0 0.0
0.0 0.0 0.0
0.0 0.0 0.0
0.0 0.0 0.0
0.0 0.0 0.0
0.0 0.0 0.0
0.0 0.0 0.0
0.0 0.0 0.0
0.0 0.0 0.0
0.0 0.0 0.0
0.0 0.0 0.0
0.0 0.0 0.0
0.0 0.0 0.0
0.0 0.0 0.0
0.0 0.0 0.0
0.0 0.0 0.0
0.0 0.0 0.0
0.0 0.0 0.0
0.0 0.0 0.0
0.0 0.0 0.0
0.0 0.0 0.0
0.0 0.0 0.0
0.0 0.0 0.0
0.899498844172 0.0947742635985 0.0
1.40009626393 0.00314925398057 0.0
1.42312802126 -0.00612767732412 0.0
1.00848667374 -0.0874395298626 0.0
0.0 0.0 0.0
0.0 0.0 0.0
0.0 0.0 0.0
0.0 0.0 0.0
0.0 0.0 0.0
0.0 0.0 0.0
0.0 0.0 0.0
0.0 0.0 0.0
0.0 0.0 0.0
0.0 0.0 0.0
0.0 0.0 0.0
0.0 0.0 0.0
0.0 0.0 0.0
0.0 0.0 0.0
0.0 0.0 0.0
0.0 0.0 0.0
0.0 0.0 0.0
0.0 0.0 0.0
0.0 0.0 0.0
0.0 0.0 0.0
0.0 0.0 0.0
0.0 0.0 0.0
0.0 0.0 0.0
0.0 0.0 0.0
0.0 0.0 0.0
0.0 0.0 0.0
0.0 0.0 0.0
0.0 0.0 0.0
0.0 0.0 0.0
0.0 0.0 0.0
0.0 0.0 0.0
0.0 0.0 0.0
0.0 0.0 0.0
0.0 0.0 0.0
0.0 0.0 0.0
0.0 0.0 0.0
0.0 0.0 0.0
0.0 0.0 0.0
0.0 0.0 0.0
0.0 0.0 0.0
0.0 0.0 0.0
0.0 0.0 0.0
0.0 0.0 0.0
0.0 0.0 0.0
0.0 0.0 0.0
0.0 0.0 0.0
0.0 0.0 0.0
0.0 0.0 0.0
0.0 0.0 0.0
1.0 0.0 0.0
1.0 0.0 0.0
1.0 0.0 0.0
1.0 0.0 0.0
1.23515009374 -0.0391374323575 0.0
1.46186756698 -0.0362882693491 0.0
1.43991559374 -0.0106702029994 0.0
1.3551752598 -0.0290120102116 0.0
1.43789353561 0.028344215585 0.0
1.40967386553 0.0252467857811 0.0
1.38903295019 0.0169632438131 0.0
1.42281032366 -0.00444426263921 0.0
1.40245220927 -0.0269736439729 0.0
1.4062117038 -0.0212403175323 0.0
1.42036155288 -0.00350570840999 0.0
1.40713737894 0.0191596454008 0.0
1.408948734 0.0207954662594 0.0
1.45664737285 0.0179556269163 0.0
1.45695319355 -0.0163880562328 0.0
1.49489322222 -0.0173365901421 0.0
1.26807114914 -0.00148568607122 0.0
1.10798046778 -0.0930130427724 0.0
1.33574279966 0.0143004193034 0.0
1.36192189597 0.0212101144607 0.0
1.30791296891 0.0209356881266 0.0
1.36583878369 -0.0214118729703 0.0
1.37916777673 -0.00475189058965 0.0
1.35783205492 0.0217759258523 0.0
1.36808129102 0.0421095602298 0.0
1.39181242819 -0.00603620890922 0.0
1.36635823829 -0.0270296345467 0.0
1.31430210448 -0.0351810583143 0.0
1.23749034266 -0.0543335634688 0.0
1.34572113783 0.0232595739537 0.0
1.36759137232 0.0137106929385 0.0
1.29344482196 0.00993496346653 0.0
1.28038775776 -0.00132831986718 0.0
1.34586322094 -0.00616606018878 0.0
1.37914461092 -0.0387645710846 0.0
1.24745476736 -0.00121709786541 0.0
1.24370518537 0.0265931875296 0.0
1.27039793473 0.0333842071703 0.0
1.24913854107 0.0387608089091 0.0
1.28003452671 0.0191818434723 0.0
1.24487157069 -0.0236218014365 0.0
1.22728355163 -0.00904356211574 0.0
1.21564856931 -0.00883104289592 0.0
1.24772979119 -0.0287769449297 0.0
1.15876440126 0.116025823059 0.0
1.28705164536 -0.0190923868813 0.0
1.26273865264 0.0026588764378 0.0
1.28194212677 -0.0269798609317 0.0
1.24491218207 0.0201047112793 0.0
1.23082726041 -0.0496105893199 0.0
1.14803403896 -0.069064526276 0.0
1.19344515018 -0.034473659113 0.0
1.16299466123 -0.0133781338114 0.0
1.14365195882 -0.0413308410461 0.0
1.19902296295 0.000117456789521 0.0
1.22024383355 -0.0079241056332 0.0
1.21879318348 0.0219979322924 0.0
1.11512826539 -0.0346275580766 0.0
1.15873632087 0.0286025318459 0.0
1.15023795917 0.020967816428 0.0
1.19258468516 0.0387602455161 0.0
1.20776091937 0.0274693146166 0.0
1.19307842417 -0.0034879499939 0.0
1.22972119015 0.00988458458409 0.0
1.21302434851 -0.0156295264449 0.0
1.21099625836 -0.0411607159248 0.0
1.18715454224 0.0303736130759 0.0
1.19782501848 -0.00264721617025 0.0
0.916755429363 0.0119247897497 0.0
0.935473318125 -0.000983817681174 0.0
0.937440725819 -0.0271349659166 0.0
0.940769624165 -0.0262540587877 0.0
0.924940388244 0.000209426207094 0.0
0.930990904063 0.0164915886245 0.0
0.917382791416 0.0239730962887 0.0
0.823634223246 0.0162620081209 0.0
0.819859863662 -0.0162557285738 0.0
0.922584054771 -0.0175234789981 0.0
1.19305096332 0.022728555013 0.0
1.01041362796 -0.0415631252109 0.0
0.992669172806 0.0383364253153 0.0
1.13143776823 -0.0140277497227 0.0
1.01082088066 0.00155323678485 0.0
1.47507671341 -0.0106969069658 0.0
0.848196042664 -0.0123281112979 0.0
1.087139235 0.0759307828811 0.0
1.48281150883 -0.020904926823 0.0
1.13553735474 -0.0105278559817 0.0
0.802379863782 -0.0171346506393 0.0
1.02132179526 -0.0612260911903 0.0
0.765413105979 -0.0492051057054 0.0
1.11333167775 -0.150708775313 0.0
0.942046813774 0.00119733604839 0.0
0.974744835311 0.0377609341444 0.0
0.922268806778 -0.0348728667307 0.0
1.03307560864 -0.00318716467233 0.0
0.933752951832 -0.0378362724099 0.0
0.946335942764 -0.0151919105821 0.0
0.942169603352 -0.000765414261492 0.0
0.943426859287 0.00126352195723 0.0
0.981504531368 0.0326077234512 0.0
0.939497556354 0.0147794594993 0.0
0.954565117833 0.0381985049339 0.0
0.847212484764 -0.00611916252057 0.0
0.860160850529 -0.0113402472579 0.0
0.87224736793 -0.0150443212177 0.0
0.900897867204 -0.0565640554745 0.0
0.939520705965 -0.045169044357 0.0
0.874247173652 -0.0427632338003 0.0
0.836712616171 0.0275638646309 0.0
0.844149482385 -0.00679235265671 0.0
1.46151310955 -0.0108317598517 0.0
1.4653415569 -0.0101499117611 0.0
0.79947829563 0.0110464688129 0.0
0.795083294503 0.0292194348515 0.0
1.48635012321 0.0189533322098 0.0
1.45927430412 0.0294555536626 0.0
0.812013584118 -0.0189052960408 0.0
0.824569106882 -0.0239231231616 0.0
0.809905929274 -0.0198415323383 0.0
0.809458634853 0.00145795029647 0.0
0.787574832332 0.0232680472308 0.0
0.818340378596 0.0307686845974 0.0
0.812306095743 -0.00672924556199 0.0
1.4786983528 -0.0229622963801 0.0
1.46970534993 -0.0257230448773 0.0
1.4741778723 0.0113298063021 0.0
1.48008328255 -0.0236164944343 0.0
1.47141574891 0.0256774272128 0.0
1.4785577691 0.0178667090462 0.0
1.47624335275 -0.00734297631597 0.0
1.4759626337 -0.000225658175848 0.0
1.41230759659 -0.000404787949237 0.0
1.35043430771 -0.0362985997757 0.0
1.31455510451 -0.0360461016867 0.0
1.48626781878 -0.0296085875375 0.0
1.48301831363 -0.0469097570371 0.0
1.46284079977 0.0132925104488 0.0
1.44140834676 0.0181987773243 0.0
1.491629735 0.0190778077255 0.0
1.44773623632 0.0419905204037 0.0
1.47212995486 0.0222680548553 0.0
1.46266441473 0.0264754793387 0.0
1.45792429715 0.0259165450781 0.0
1.4580064509 -0.0158967545184 0.0
1.45668667042 -0.0266088178349 0.0
1.44612301643 0.0134060419596 0.0
1.46072187018 -0.0313972373819 0.0
0.796101350557 0.00852506005975 0.0
0.786594596042 0.0213100155252 0.0
0.807497209805 0.0289640119908 0.0
0.825057846259 0.0426505838141 0.0
0.828752318054 0.00841671468231 0.0
0.819297478697 -0.0231190610076 0.0
0.814820772952 -0.0170830355621 0.0
0.802878010592 -0.000629435773474 0.0
0.815018132331 -0.0211981930982 0.0
0.905938259616 0.0264788352778 0.0
0.90657943882 -0.0443426953149 0.0
1.17225983547 0.183086055917 0.0
0.878133252322 -0.00987800540489 0.0
0.891612926184 -0.0231088256906 0.0
1.04106863399 -0.0225631865804 0.0
1.3337768247 -0.0407571471472 0.0
1.18396454593 -0.0836771295984 0.0
0.898567167858 -0.00143220995164 0.0
0.824959414746 0.0181913393999 0.0
0.845051448557 0.0328113776471 0.0
0.878238411071 0.025813164867 0.0
0.802590045344 0.0479518217959 0.0
0.79844772207 -0.00861635566542 0.0
0.83207525652 -0.013168441631 0.0
0.846371801685 -0.0119768263437 0.0
0.833186314376 -0.00255322330928 0.0
0.836635377404 -0.0297700139792 0.0
1.41185606955 -0.0217522971403 0.0
1.35973835719 -0.00891190867414 0.0
0.858384090897 0.0129169111977 0.0
1.41095097426 0.0319598902325 0.0
1.389610215 0.0287518215347 0.0
0.887362679929 -0.0261957241122 0.0
0.864301608844 0.103739607047 0.0
1.42805830809 0.0263681712227 0.0
1.41248520999 0.0105147207609 0.0
0.837282342689 -0.023185189041 0.0
0.884972243527 -0.00422914727676 0.0
1.43329778963 -0.0293016073507 0.0
1.42436610401 -0.0235997679602 0.0
1.42284067849 0.022357152134 0.0
1.41633741713 -0.0139790727502 0.0
0.832343149545 -0.00281694756971 0.0
1.41808552764 0.0194155548201 0.0
1.34380306841 0.0376010111069 0.0
1.37284947157 -0.0492501351835 0.0
1.28257423675 0.00986189968959 0.0
1.26135721131 -0.0324020112699 0.0
1.25771698303 -0.0102874749858 0.0
1.25996337413 0.0339628320451 0.0
1.28886211214 0.0243105680395 0.0
1.27715886688 0.00162887109726 0.0
1.23639173591 0.0345318074282 0.0
1.25283238839 0.00148763811644 0.0
1.27118615158 -0.00827062771365 0.0
1.23829527116 -0.0147697057631 0.0
1.25671705624 -0.0358173782922 0.0
1.29274125543 -0.0329870652217 0.0
1.24074867639 -0.0442186358217 0.0
1.25992748299 0.0108353876929 0.0
1.27131250731 0.0243087631617 0.0
1.29238722692 0.0369650737096 0.0
1.2779351228 0.0186997215656 0.0
1.28485450236 0.0152783082715 0.0
1.21512231235 -0.0730525072269 0.0
1.3205768422 -0.030012043546 0.0
1.26794088112 0.0054218819766 0.0
1.2700390418 0.0307009925168 0.0
1.25215352699 -0.0368766944324 0.0
1.24492508402 -0.0108732752468 0.0
1.26421902085 0.0578629184702 0.0
1.36054897678 -0.024656319342 0.0
1.23151938612 -0.00173540210881 0.0
1.27377501565 -0.0115654165017 0.0
1.35009221597 -0.0220454964384 0.0
1.35846353645 -0.0115535243361 0.0
0.868768743391 -0.138204317929 0.0
1.31004531312 -0.00548123047947 0.0
1.28178120985 -0.00539415828365 0.0
1.47960920836 -0.0230710613252 0.0
1.48113272069 -0.00674392017335 0.0
1.31521819145 0.000374043804214 0.0
1.03122630238 0.0963245035651 0.0
0.73744280574 -0.0105633635103 0.0
1.12741730024 0.163022325054 0.0
1.0124383532 -0.0901956622844 0.0
1.2965263313 -0.000732903418089 0.0
1.36658103871 -0.0360067526465 0.0
1.29705402525 0.0062129275433 0.0
1.46083789609 -0.0143827374322 0.0
1.39018559054 0.0149487683377 0.0
0.851865862485 0.0931949195909 0.0
0.664299355129 0.0346358663805 0.0
1.0912102137 -0.116949962732 0.0
0.838851852326 -0.0782006166162 0.0
1.45235998496 0.0194522474896 0.0
1.43125191911 0.0524612736013 0.0
0.663189622605 0.0462855956852 0.0
0.694048714937 0.014187610033 0.0
0.652083318205 -0.000978163311394 0.0
1.46636279632 0.0264364039001 0.0
1.45769183024 -0.0273001144205 0.0
1.45197588202 -0.0216373282785 0.0
1.42360832328 0.0309046301301 0.0
1.46370155091 -0.0164786609907 0.0
1.46856881258 -0.0333264535626 0.0
1.46005888015 0.0214780105718 0.0
1.46054178835 0.0252198037788 0.0
0.663701137027 -0.0195341858461 0.0
0.656770570274 -0.031081029283 0.0
1.46761927885 0.0240401816042 0.0
0.686841966563 0.0234681570103 0.0
0.680364487287 -0.0155818925298 0.0
0.726787303727 0.037001487815 0.0
0.682469576192 0.0181068228636 0.0
0.806611628672 -0.0314805939091 0.0
0.650118892326 -0.0435505781449 0.0
0.675918226449 -0.00863172755601 0.0
0.697158041889 -0.0359939268852 0.0
0.770863691394 0.0159458778421 0.0
0.653948359516 -0.027051853817 0.0
0.635005019909 0.0293999323197 0.0
0.634030410673 0.0107520993263 0.0
0.484264811741 0.0377133872632 0.0
1.12814813495 -0.0524094615835 0.0
0.78166485987 -0.0137356496513 0.0
0.613605403627 0.00365732689072 0.0

SCALARS scalar1 double
LOOKUP_TABLE default
2.6111111563
5.32289927083
5.43725577919
4.95540865367
-6.07347822118
-2.58030694588
10.2127786558
9.39971691412
7.40090979457
6.7312363306
6.00017668814
5.83869972918
5.72326782327
5.31875431519
5.44004270614
5.36860521992
5.42887274474
5.61566688935
5.70200913146
5.73414018605
5.66196049331
5.55705372126
5.46726208625
5.35189807766
5.27134844931
5.39467450245
5.36199809812
5.61219703184
5.8430992759
5.65553469522
7.01316735832
4.16399198795
7.0259493509
5.5208194671
5.7186325917
5.59052345079
5.42472016301
5.60379514004
5.66832981238
5.68996954368
5.68409027605
5.56012365755
5.47341021307
5.3165347179
5.20610569226
5.56925905097
5.38095715091
5.71221901478
5.73798568313
5.45204400099
5.35217755419
5.15020361468
5.55484550438
4.89196792783
3.70298195796
1.31466924881
-0.989984093664
-3.08830913541
-6.34269979013
-6.27177515727
-5.60407773487
-5.23127469501
-5.43487912685
-5.14029057993
-5.65354744407
-5.64528522541
-5.57292490204
-5.90447020341
-5.7273609716
-5.53884835093
-5.80367803769
-5.57062650933
-5.19510823348
-5.53368994028
-5.66560524244
-5.35951504619
-5.66942257174
-7.22576537265
-4.83379141191
-5.80325275503
-5.65772149514
-5.63134898874
-5.68293729393
-4.69163322237
-6.89875907208
-5.68364659334
-5.4422741093
-5.89971430438
-5.97766006946
-5.52822100927
-5.58170707682
-5.59356000547
-5.30733163426
-5.54978135272
-5.63615121752
-5.44667830034
-5.98382365791
-6.31466042983
-5.99977378518
-6.24664886505
-6.83842384116
-6.30182899346
-6.61278352244
-6.4205690881
-7.26556276968
-9.98059410404
-11.2720575726
2.86889218848
-0.028178193461
-0.00557898357506
-2.81030257135
0.0905902473809
0.531735526373
0.798760102925
0.614078986346
0.831781857456
0.792427545497
1.11815124052
1.06654593013
1.14872369448
1.11591324996
1.1098683148
1.01277143825
1.05080456147
0.23410893433
0.369844265153
0.188944269376
2.54069924269
-0.65399469669
-1.88006518219
-1.47925474931
-1.77046463849
-1.45357385765
-1.54058193109
-1.5059483295
-1.35473543977
-1.42740319224
-1.48355140459
1.95350609013
1.16046193043
-1.04882023554
-1.66600743712
2.05903501412
1.85871660841
-0.184984892759
-1.60431703141
2.15178106605
2.40913405405
2.08712723578
2.12209252919
2.29353554326
2.33096174054
2.21289014742
2.20757915436
2.30447076709
0.917974758561
-2.10535788316
-1.95916327056
-2.04852765663
2.18223972209
2.23025414083
1.05663844853
2.81611975561
2.56583768499
2.36905894431
-2.87921459223
-1.87740593747
-2.4349341396
-2.91065824248
2.81524666159
2.85242664692
-2.5404338366
-2.23755981314
-2.36460027463
-2.61259927998
-2.67490271755
-2.53593363312
-2.70693373959
-2.30977624597
3.30228375546
3.93599157684
3.36933947178
3.35845018729
3.98963952628
3.36574295372
3.53026413538
4.34576524791
3.58739785857
-3.48810671502
-2.69646124654
-3.26152222055
-2.73266822016
2.44708745099
0.0578244677335
0.104331257554
-3.58473630157
-3.82221140481
0.161378949759
0.0595392960625
4.34463546521
2.6120198026
4.28666398341
-0.266687794409
-3.23693496356
-3.67195138292
-3.89525073463
-3.20602346195
-3.61345017286
-3.90439431701
-3.90389686156
-3.29441743576
-3.20577558873
-3.73895424588
-3.45054233326
3.45197907951
3.89016014842
3.43753662818
3.2608198395
2.91481421628
3.65794051237
3.57236219189
4.04272512934
-0.0205349953543
0.0525952221236
4.19603222945
3.72335142759
0.522631835227
0.626605253854
3.5601265696
3.9370812918
4.2323691817
3.62347676621
4.09920533521
4.1451274543
3.59927283161
0.616485237795
0.722095179252
0.627726
0.62152289247
0.296377262923
0.598963142506
0.429164080619
0.503259097216
0.47584612158
0.323672556211
0.214493554478
0.370705478709
0.287991280541
0.579201627687
0.431994869069
0.446859155209
0.576661656343
0.518503538602
0.657220901151
0.494787051886
0.703349875546
0.732375412852
0.770001287089
0.662511299192
3.65399062367
4.23496994013
3.85897808486
3.87802203031
4.04155316329
3.97567589062
3.58079595459
3.58528256969
4.18092487269
-3.62556953937
-3.25683398457
0.221889654403
-3.65596274546
-3.73441825396
-3.51407069662
1.99243200231
-0.216471340603
-3.59573004824
-4.35712452982
-3.72900242683
-3.80246792704
-4.06379129022
-4.55808911901
-3.74207048505
-4.41780270345
-4.30125454335
-3.725933673
-1.26164615454
-0.250913492151
-3.55338561665
-1.22460160139
-0.873868305692
-3.6975327064
3.78332069253
-0.931461085072
-1.11202431105
4.2985475638
-3.46726072954
-0.995630982397
-1.0787497782
-1.13632392356
-1.08249444412
3.73707424302
-1.11964819032
-1.57740573367
-1.57193262995
1.9718724151
1.68277738072
2.13672746215
2.30248014254
2.05232057731
2.48818369119
2.16026051195
2.12726581522
2.3734294259
2.26600654243
2.25769946603
1.87347083801
1.26037916206
2.17785164506
2.00792046081
2.06793009811
1.76930336615
1.9988229286
0.847079963642
1.82345684619
2.57536822203
2.14314826167
2.3036861792
2.28132101652
0.461497369917
-1.67079336761
2.14396500793
2.35889077245
-1.39585428169
-1.40001891961
3.7399812295
2.04105618196
2.09108635657
0.703714372811
0.669701261266
-2.02063713474
1.46890043106
-4.12204839009
-3.8000735206
-1.03199800689
2.32937801885
-1.55169291103
0.179213182601
-0.808447644919
-0.210308568015
-3.892123159
4.73356372432
3.58301464357
-4.66357727524
-0.786498731469
-0.580279773883
-4.46944238159
-3.98815035504
-4.54317636309
-0.503388543608
-0.690734067577
-1.09769001845
-1.18805464635
-0.609665557891
-0.61565472377
-0.705838786688
-0.773563070008
-4.24683136927
-4.51660992136
-0.76067583418
-4.60951129545
-4.00065721102
-4.19782486402
-4.28198082546
3.92855102263
4.46218045152
4.04689554013
4.29904672112
-4.28259103746
-4.76386740214
4.30046230139
4.52795612612
4.49233755392
1.01528300229
-4.98829548342
-4.19263687163

SCALARS scalar2 double
LOOKUP_TABLE default
2.6111111563
5.32289927083
5.43725577919
4.95540865367
-6.07347822118
-2.58030694588
10.2127786558
9.39971691412
7.40090979457
6.7312363306
6.00017668814
5.83869972918
5.72326782327
5.31875431519
5.44004270614
5.36860521992
5.42887274474
5.61566688935
5.70200913146
5.73414018605
5.66196049331
5.55705372126
5.46726208625
5.35189807766
5.27134844931
5.39467450245
5.36199809812
5.61219703184
5.8430992759
5.65553469522
7.01316735832
4.16399198795
7.0259493509
5.5208194671
5.7186325917
5.59052345079
5.42472016301
5.60379514004
5.66832981238
5.68996954368
5.68409027605
5.56012365755
5.47341021307
5.3165347179
5.20610569226
5.56925905097
5.38095715091
5.71221901478
5.73798568313
5.45204400099
5.35217755419
5.15020361468
5.55484550438
4.89196792783
3.70298195796
1.31466924881
-0.989984093664
-3.08830913541
-6.34269979013
-6.27177515727
-5.60407773487
-5.23127469501
-5.43487912685
-5.14029057993
-5.65354744407
-5.64528522541
-5.57292490204
-5.90447020341
-5.7273609716
-5.53884835093
-5.80367803769
-5.57062650933
-5.19510823348
-5.53368994028
-5.66560524244
-5.35951504619
-5.66942257174
-7.22576537265
-4.83379141191
-5.80325275503
-5.65772149514
-5.63134898874
-5.68293729393
-4.69163322237
-6.89875907208
-5.68364659334
-5.4422741093
-5.89971430438
-5.97766006946
-5.52822100927
-5.58170707682
-5.59356000547
-5.30733163426
-5.54978135272
-5.63615121752
-5.44667830034
-5.98382365791
-6.31466042983
-5.99977378518
-6.24664886505
-6.83842384116
-6.30182899346
-6.61278352244
-6.4205690881
-7.26556276968
-9.98059410404
-11.2720575726
2.86889218848
-0.028178193461
-0.00557898357506
-2.81030257135
0.0905902473809
0.531735526373
0.798760102925
0.614078986346
0.831781857456
0.792427545497
1.11815124052
1.06654593013
1.14872369448
1.11591324996
1.1098683148
1.01277143825
1.05080456147
0.23410893433
0.369844265153
0.188944269376
2.54069924269
-0.65399469669
-1.88006518219
-1.47925474931
-1.77046463849
-1.45357385765
-1.54058193109
-1.5059483295
-1.35473543977
-1.42740319224
-1.48355140459
1.95350609013
1.16046193043
-1.04882023554
-1.66600743712
2.05903501412
1.85871660841
-0.184984892759
-1.60431703141
2.15178106605
2.40913405405
2.08712723578
2.12209252919
2.29353554326
2.33096174054
2.21289014742
2.20757915436
2.30447076709
0.917974758561
-2.10535788316
-1.95916327056
-2.04852765663
2.18223972209
2.23025414083
1.05663844853
2.81611975561
2.56583768499
2.36905894431
-2.87921459223
-1.87740593747
-2.4349341396
-2.91065824248
2.81524666159
2.85242664692
-2.5404338366
-2.23755981314
-2.36460027463
-2.61259927998
-2.67490271755
-2.53593363312
-2.70693373959
-2.30977624597
3.30228375546
3.93599157684
3.36933947178
3.35845018729
3.98963952628
3.36574295372
3.53026413538
4.34576524791
3.58739785857
-3.48810671502
-2.69646124654
-3.26152222055
-2.73266822016
2.44708745099
0.0578244677335
0.104331257554
-3.58473630157
-3.82221140481
0.161378949759
0.0595392960625
4.34463546521
2.6120198026
4.28666398341
-0.266687794409
-3.23693496356
-3.67195138292
-3.89525073463
-3.20602346195
-3.61345017286
-3.90439431701
-3.90389686156
-3.29441743576
-3.20577558873
-3.73895424588
-3.45054233326
3.45197907951
3.89016014842
3.43753662818
3.2608198395
2.91481421628
3.65794051237
3.57236219189
4.04272512934