# vtk DataFile Version 2.0
2D Simulation Python
ASCII
DATASET UNSTRUCTURED_GRID
FIELD FieldData 1
NODES 1 2 int
386 659

POINTS 386 double
0.0 1.0 0.0
1.725 0.9700586403872806 0.0
8.275 1.0299413596127194 0.0
10.0 1.0 0.0
10.0 -4.822107120490846e-17 0.0
0.0 0.0 0.0
0.1916666666663293 1.0223025246957989 0.0
0.3833333333324708 1.0367601893484126 0.0
0.574999999998553 1.0382875447857312 0.0
0.7666666666645966 1.026347347363592 0.0
0.9583333333312576 1.0051395331403656 0.0
1.149999999998384 0.982123900352889 0.0
1.341666666665662 0.9653961431204514 0.0
1.533333333332819 0.9608402102836571 0.0
1.92348484848444 0.990625830294731 0.0
2.121969696968978 1.01472135137735 0.0
2.320454545453434 1.0332759227397967 0.0
2.518939393937826 1.0393058141277582 0.0
2.717424242422235 1.030541442801026 0.0
2.915909090906411 1.0102816187401353 0.0
3.1143939393908 0.9861519099777059 0.0
3.312878787875129 0.9672344652640714 0.0
3.511363636359531 0.9606495962679868 0.0
3.709848484843827 0.9688757730079911 0.0
3.90833333332816 0.9888167558429567 0.0
4.106818181812215 1.0129669849620164 0.0
4.305303030296804 1.0322365879854059 0.0
4.503787878781365 1.0393727048499237 0.0
4.702272727265711 1.0316893820904467 0.0
4.900757575750005 1.012078535265749 0.0
5.099242424235156 0.9879214647359983 0.0
5.297727272720327 0.9683106179105775 0.0
5.496212121205663 0.960627295150096 0.0
5.694696969690998 0.9677634120137277 0.0
5.89318181817668 0.9870330150366877 0.0
6.09166666666213 1.0111832441558912 0.0
6.290151515147423 1.0311242269913463 0.0
6.488636363633031 1.0393504037319814 0.0
6.687121212118713 1.0327655347363507 0.0
6.885606060604342 1.0138480900228566 0.0
7.084090909089381 0.9897183812603674 0.0
7.282575757574369 0.9694585571992398 0.0
7.481060606059355 0.960694185872261 0.0
7.679545454544343 0.966724077260056 0.0
7.878030303029329 0.9852786486224548 0.0
8.076515151514705 1.0093741697051664 0.0
8.46666666666447 1.0391597897163085 0.0
8.658333333329285 1.0346038568798466 0.0
8.84999999999549 1.0178760996477874 0.0
9.041666666661694 0.9948604668604988 0.0
9.233333333327899 0.9736526526370977 0.0
9.42499999999549 0.9617124552144389 0.0
9.616666666663775 0.9632398106514212 0.0
9.808333333331985 0.977697475304029 0.0
10.0 0.7999999999999998 0.0
10.0 0.6000000000013869 0.0
10.0 0.4000000000016644 0.0
10.0 0.2000000000008322 0.0
9.799999999999999 -0.023144333961207887 0.0
9.6 -0.037448318996212614 0.0
9.399999999999999 -0.03744831899621252 0.0
9.2 -0.023144333961207585 0.0
8.999999999999998 3.2317866774324856e-16 0.0
8.799999999999997 0.02314433396120809 0.0
8.599999999999998 0.0374483189962127 0.0
8.399999999999997 0.03744831899621246 0.0
8.199999999999998 0.023144333961207485 0.0
7.999999999999997 -3.183565606227576e-16 0.0
7.799999999999997 -0.02314433396120809 0.0
7.599999999999998 -0.0374483189962127 0.0
7.399999999999997 -0.03744831899621246 0.0
7.199999999999998 -0.023144333961207603 0.0
6.999999999999997 3.135344535022669e-16 0.0
6.799999999999997 0.023144333961208102 0.0
6.599999999999998 0.0374483189962127 0.0
6.399999999999997 0.03744831899621243 0.0
6.199999999999998 0.02314433396120759 0.0
5.999999999999997 -3.08712346381776e-16 0.0
5.799999999999998 -0.02314433396120799 0.0
5.599999999999998 -0.0374483189962127 0.0
5.399999999999999 -0.03744831899621257 0.0
5.199999999999998 -0.02314433396120759 0.0
4.999999999999999 1.6400038743186981e-16 0.0
4.799999999999999 0.023144333961207835 0.0
4.599999999999999 0.03744831899621268 0.0
4.399999999999999 0.03744831899621252 0.0
4.199999999999999 0.02314433396120766 0.0
3.999999999999999 -1.591782803113788e-16 0.0
3.799999999999999 -0.02314433396120784 0.0
3.599999999999999 -0.037448318996212634 0.0
3.399999999999998 -0.03744831899621252 0.0
3.199999999999998 -0.023144333961207488 0.0
2.999999999999999 1.54356173190888e-16 0.0
2.799999999999998 0.023144333961207908 0.0
2.599999999999998 0.037448318996212704 0.0
2.399999999999999 0.03744831899621256 0.0
2.199999999999999 0.023144333961207603 0.0
1.999999999999998 -2.5445145494245867e-16 0.0
1.799999999999999 -0.023144333961207866 0.0
1.6 -0.037448318996212586 0.0
1.4 -0.037448318996212586 0.0
1.199999999999999 -0.023144333961207623 0.0
0.9999999999999982 2.32143116343291e-16 0.0
0.7999999999999989 0.023144333961207866 0.0
0.6000000000000014 0.037448318996212544 0.0
0.3999999999999986 0.037448318996212544 0.0
0.1999999999999993 0.02314433396120765 0.0
0.0 0.1999999999995579 0.0
0.0 0.3999999999989749 0.0
0.0 0.5999999999989468 0.0
0.0 0.7999999999994734 0.0
0.6588466720252218 0.5508388577149228 0.0
9.34115279959376 0.5410994861051169 0.0
8.7414328441478 0.5717524072144587 0.0
1.25856419775416 0.5631711934469973 0.0
8.162841450377512 0.5755494959144459 0.0
1.8371433495148228 0.5700574503856867 0.0
2.430441360520532 0.604467715283256 0.0
7.56947744361384 0.5911422526347613 0.0
3.030492246207649 0.6016628739285435 0.0
6.9690261850063955 0.6007802900620349 0.0
3.628663898668753 0.5949349463697342 0.0
6.367982669972324 0.59666128962313 0.0
4.229400771603268 0.5955035355393077 0.0
5.795134235682748 0.5235135402595172 0.0
4.8024785188158745 0.5315582934620063 0.0
5.298820266736724 0.5137165167708689 0.0
9.677454509530122 0.6937309218105167 0.0
0.32254534909124055 0.7072829572279664 0.0
4.530525394695135 0.3459142522079021 0.0
3.918822762500567 0.3708906739417898 0.0
6.067964737255355 0.3384631248175908 0.0
3.3194115855751836 0.3706330048922488 0.0
6.679655353813784 0.3778420556129063 0.0
7.878986044697017 0.3644483452355223 0.0
2.120982398686853 0.37041478279960666 0.0
2.7201102946717777 0.38084720853779375 0.0
7.279714263436553 0.3695980800457386 0.0
9.0372702419082 0.6716404786719209 0.0
0.962728649289599 0.6734398939246816 0.0
1.5320838476257455 0.353410948253977 0.0
8.467910220760634 0.36727998716852295 0.0
8.458294143020316 0.6876704316284329 0.0
1.541700168020613 0.672332792792736 0.0
0.979399867346042 0.3656817729801058 0.0
9.02059889226247 0.36496575833902045 0.0
4.527199775052893 0.6987601969999963 0.0
3.9214025969832402 0.6996004573510305 0.0
6.069685660417835 0.691858772482251 0.0
2.1183769999472797 0.6950011861354316 0.0
7.881594499991004 0.6888235329686219 0.0
3.3233611529530536 0.6980959078785117 0.0
6.675556618057383 0.7082237074579006 0.0
2.7253711640695717 0.7104422160287638 0.0
7.274462755779245 0.6970793317381333 0.0
0.33283957805584685 0.3102174574220183 0.0
9.667160267628875 0.29704763001848516 0.0
5.58132422001419 0.31230337862327295 0.0
5.017220607356062 0.3208132645492842 0.0
5.509457727617426 0.6846813892176676 0.0
5.087392121989677 0.690982832692182 0.0
0.6619005092809005 0.7431375255465388 0.0
9.338099094809408 0.7279699203524933 0.0
8.747624311129023 0.7463919731012116 0.0
1.2523735190442722 0.7337039428649134 0.0
8.67038798546119 0.28327410990928875 0.0
1.3296091195700295 0.26892782432167145 0.0
0.6804015936524405 0.244450981153321 0.0
9.319598013658792 0.22939846807254735 0.0
8.169907997116036 0.7493329059695665 0.0
1.8300810437581179 0.7404467373062344 0.0
8.08224161742083 0.28021750533125245 0.0
1.917743131535809 0.2760586964336139 0.0
7.485180592298122 0.2769563924539229 0.0
2.5147355676407335 0.2941843587446262 0.0
6.885160963642351 0.28862763607291536 0.0
3.1144048680105905 0.2850677473607388 0.0
6.284935231417659 0.27717528004153197 0.0
3.713789043829463 0.2797396649162024 0.0
2.4224493089601626 0.8278217846610976 0.0
7.5775039640849196 0.7963007838753577 0.0
3.021605110841956 0.8140408642914941 0.0
6.978106160537254 0.8147120636388138 0.0
3.6184596491965637 0.7991613482626343 0.0
6.379474969025705 0.824697682579956 0.0
4.216884896998948 0.8198089622243855 0.0
5.793598400154286 0.8319940809119097 0.0
4.802574982266493 0.8535266513990066 0.0
5.299579324203242 0.1709378036139216 0.0
4.313878968139521 0.2783378871622096 0.0
4.743204933859237 0.24678565575967273 0.0
5.855724986057937 0.2303328921998887 0.0
5.298372066430072 0.706879387010294 0.0
0.19483726772173074 0.5052619211066068 0.0
9.80516263567236 0.4990052299860092 0.0
9.486963243210733 0.14616626941364166 0.0
0.5130365845326593 0.17851852685490216 0.0
9.56892552124974 0.5069136296093573 0.0
0.43107421493202164 0.5175060642496653 0.0
9.509138635986785 0.8199039628532455 0.0
0.49086120523594884 0.8527993415097236 0.0
9.823684716701498 0.8200387229654141 0.0
0.1763152367542724 0.8354404399617976 0.0
7.6906756217737 0.17964405804323424 0.0
2.3092909758988576 0.20578578323404467 0.0
8.87666373537955 0.19726519685061394 0.0
1.1233350731761365 0.18635781265793505 0.0
7.090880438907308 0.19017794697453186 0.0
2.9089430479240423 0.20020863173821624 0.0
6.49107625162327 0.20536952593674987 0.0
3.5085323265975275 0.17968262213712874 0.0
1.7133214027895856 0.1756611582898455 0.0
8.28667245256244 0.20061465692725 0.0
4.108122728989551 0.19515015623925058 0.0
8.577560101954864 0.8444403463113161 0.0
1.4224373954811085 0.8127288546671256 0.0
8.923332976774063 0.8297165053966875 0.0
1.0766660704645044 0.8228833083321038 0.0
0.8418681021686375 0.8322276347386696 0.0
9.158131416814584 0.8175916310231615 0.0
8.345850371852126 0.8443024787229946 0.0
1.65414478990047 0.8151300630595533 0.0
5.592449090389291 0.49759836014337 0.0
5.005265140509095 0.5039828943500092 0.0
7.789405108229528 0.828257367276139 0.0
2.2105728176735564 0.8505339461478516 0.0
7.776865077221396 0.5480479754857778 0.0
2.223088673129358 0.5559137053769896 0.0
2.8152765742994648 0.8545760698207399 0.0
7.184590602350032 0.8344455458430966 0.0
3.4120552052327073 0.8279263337134818 0.0
6.587034817350186 0.8594111157911212 0.0
4.009202334981735 0.842952260786888 0.0
5.984832283963338 0.8424538770385197 0.0
4.611344717633283 0.8602788999206671 0.0
7.1751661635171775 0.5564053966822398 0.0
2.8245670236287195 0.5637951461397656 0.0
6.575204016060987 0.5602665950316811 0.0
3.423088906771652 0.5553000176532169 0.0
5.978030920156897 0.53028706536378 0.0
4.02240800632781 0.555520111281723 0.0
4.619575537747172 0.5372692597840509 0.0
8.548997314439205 0.546365354814381 0.0
1.450997525717466 0.5348413953197234 0.0
[...]
POINT_DATA 386
VECTORS vector double
1.0 0.0 0.0
0.0 0.0 0.0
0.0 0.0 0.0
0.0 0.0 0.0
0.0 0.0 0.0
1.0 0.0 0.0
0.0 0.0 0.0
0.0 0.0 0.0
0.0 0.0 0.0
0.0 0.0 0.0
0.0 0.0 0.0
0.0 0.0 0.0
0.0 0.0 0.0
0.0 0.0 0.0
0.0 0.0 0.0
0.0 0.0 0.0
0.0 0.0 0.0
0.0 0.0 0.0
0.0 0.0 0.0
0.0 0.0 0.0
0.0 0.0 0.0
0.0 0.0 0.0
0.0 0.0 0.0
0.0 0.0 0.0
0.0 0.0 0.0
0.0 0.0 0.0
0.0 0.0 0.0
0.0 0.0 0.0
0.0 0.0 0.0
0.0 0.0 0.0
0.0 0.0 0.0
0.0 0.0 0.0
0.0 0.0 0.0
0.0 0.0 0.0
0.0 0.0 0.0
0.0 0.0 0.0
0.0 0.0 0.0
0.0 0.0 0.0
0.0 0.0 0.0
0.0 0.0 0.0
0.0 0.0 0.0
0.0 0.0 0.0
0.0 0.0 0.0
0.0 0.0 0.0
0.0 0.0 0.0
0.0 0.0 0.0
0.0 0.0 0.0
0.0 0.0 0.0
0.0 0.0 0.0
0.0 0.0 0.0
0.0 0.0 0.0
0.0 0.0 0.0
0.0 0.0 0.0
0.0 0.0 0.0
0.892916054938 0.0922787457958 0.0
1.40176288199 0.00217401176143 0.0
1.42395628856 -0.00554473808995 0.0
1.02112161174 -0.0871392542855 0.0
0.0 0.0 0.0
0.0 0.0 0.0
0.0 0.0 0.0
0.0 0.0 0.0
0.0 0.0 0.0
0.0 0.0 0.0
0.0 0.0 0.0
0.0 0.0 0.0
0.0 0.0 0.0
0.0 0.0 0.0
0.0 0.0 0.0
0.0 0.0 0.0
0.0 0.0 0.0
0.0 0.0 0.0
0.0 0.0 0.0
0.0 0.0 0.0
0.0 0.0 0.0
0.0 0.0 0.0
0.0 0.0 0.0
0.0 0.0 0.0
0.0 0.0 0.0
0.0 0.0 0.0
0.0 0.0 0.0
0.0 0.0 0.0
0.0 0.0 0.0
0.0 0.0 0.0
0.0 0.0 0.0
0.0 0.0 0.0
0.0 0.0 0.0
0.0 0.0 0.0
0.0 0.0 0.0
0.0 0.0 0.0
0.0 0.0 0.0
0.0 0.0 0.0
0.0 0.0 0.0
0.0 0.0 0.0
0.0 0.0 0.0
0.0 0.0 0.0
0.0 0.0 0.0
0.0 0.0 0.0
0.0 0.0 0.0
0.0 0.0 0.0
0.0 0.0 0.0
0.0 0.0 0.0
0.0 0.0 0.0
0.0 0.0 0.0
0.0 0.0 0.0
0.0 0.0 0.0
0.0 0.0 0.0
1.0 0.0 0.0
1.0 0.0 0.0
1.0 0.0 0.0
1.0 0.0 0.0
1.23641036936 -0.0462916295018 0.0
1.46510578175 -0.0381023520325 0.0
1.43908054174 -0.0130484370089 0.0
1.35855209322 -0.0336780262863 0.0
1.43852041745 0.0321082115091 0.0
1.41186151022 0.0274953986522 0.0
1.39087417412 0.0191710549277 0.0
1.42405075616 -0.00344582990997 0.0
1.40498040659 -0.0303673373793 0.0
1.40809653196 -0.0244590329255 0.0
1.42069271256 -0.00364861512654 0.0
1.4087058976 0.0204184375787 0.0
1.4116092876 0.0245421432954 0.0
1.45931166264 0.0207567689713 0.0
1.45778862366 -0.0206617823181 0.0
1.49198559555 -0.0203664514533 0.0
1.26439552209 -0.00101765594673 0.0
1.11953017405 -0.105680042335 0.0
1.335206871 0.0137272774947 0.0
1.3628810251 0.024522893833 0.0
1.31320007432 0.0221051233706 0.0
1.37693447236 -0.0236167974052 0.0
1.370126041 -0.00475309382736 0.0
1.36813516068 0.0237978017838 0.0
1.36316863888 0.0454564517287 0.0
1.38798518355 -0.00764832489712 0.0
1.36967910595 -0.0304062230218 0.0
1.31578286659 -0.0401138847258 0.0
1.24373818171 -0.0600863720771 0.0
1.356660469 0.0230531924462 0.0
1.36265999337 0.0145262936392 0.0
1.3060559389 0.0123268285765 0.0
1.27005224456 -0.00188634603487 0.0
1.34698214419 -0.0115390173945 0.0
1.37912668363 -0.0428100037448 0.0
1.25106489321 -0.000257518552614 0.0
1.24307161246 0.0286693535311 0.0
1.27176416699 0.0387044512213 0.0
1.24902267891 0.0443218907955 0.0
1.28094838761 0.0218349010333 0.0
1.24755798774 -0.0261957544616 0.0
1.22909220212 -0.00951653715133 0.0
1.21856153367 -0.0109091084481 0.0
1.24958657586 -0.0321836354559 0.0
1.15073977057 0.0993927470335 0.0
1.29193670118 -0.0204690187573 0.0
1.2679719904 0.00277172013006 0.0
1.28394707807 -0.0326648588302 0.0
1.25203217639 0.0184389315618 0.0
1.23584734318 -0.0491898438106 0.0
1.15848564585 -0.0728127168806 0.0
1.19405043075 -0.0348356859942 0.0
1.16652607403 -0.0154283987786 0.0
1.1457501744 -0.0443502158053 0.0
1.20050549941 -0.00392606648429 0.0
1.2208593157 -0.0110247896515 0.0
1.21383885803 0.0182648662844 0.0
1.11515599878 -0.0365372321848 0.0
1.16028235755 0.0318052783394 0.0
1.14853114318 0.0240564391498 0.0
1.19101363381 0.0422027309955 0.0
1.21704837654 0.0300205202335 0.0
1.19733647572 -0.000816095964021 0.0
1.22695742472 0.0108530912206 0.0
1.21632175843 -0.0192437608163 0.0
1.20786427727 -0.0445886191254 0.0
1.18466282598 0.0314381873735 0.0
1.20579948378 -0.0030861445477 0.0
0.838516615892 0.0144486151905 0.0
1.02765891497 0.00496364449044 0.0
0.941264990187 -0.0447920144829 0.0
0.935796892605 -0.043129244045 0.0
1.01397679412 0.00856645984837 0.0
0.853214930797 0.0213736646698 0.0
0.865131220783 0.0333122703084 0.0
0.877520139356 0.0312662323448 0.0
0.767008425058 -0.0270741104001 0.0
0.859165841907 -0.0246566405166 0.0
1.19764133001 0.0261201667149 0.0
1.04807718398 -0.0400739558101 0.0
0.96427001072 0.0399646699277 0.0
1.17517401207 -0.0197720923848 0.0
1.01024774838 -0.00138926891451 0.0
1.47537824844 -0.0117550313717 0.0
0.770634811606 -0.0124649349878 0.0
1.18478173579 0.0668006744917 0.0
1.48327602542 -0.0224278558008 0.0
1.13683049197 -0.0168291058826 0.0
0.893393360388 -0.0171534619666 0.0
0.942680059106 -0.0700665754622 0.0
0.797947799947 -0.0501133811281 0.0
1.09363239061 -0.144255151556 0.0
0.881663749285 0.00631833815951 0.0
1.04437891135 0.0482305506561 0.0
0.947966477516 -0.0472567993803 0.0
1.00138571001 -0.0168365033164 0.0
0.910526877619 -0.0494102500111 0.0
0.967639087393 -0.0281185233827 0.0
1.02823458455 0.00173515804049 0.0
0.871481412589 0.000689206947821 0.0
0.918444385013 0.0377901318322 0.0
1.00784726308 0.0269924471506 0.0
0.980794629103 0.0531132568346 0.0
0.767218971087 -0.00826083227724 0.0
0.955834304806 -0.0176195936588 0.0
0.855183609811 -0.0294548547954 0.0
0.919646377047 -0.0753801833565 0.0
0.904105406216 -0.0593386027222 0.0
0.913385220977 -0.0576874085595 0.0
0.760662080976 0.0342073910585 0.0
0.930246801618 0.00406450062395 0.0
1.46318151634 -0.0107219569678 0.0
1.46815165612 -0.015865609509 0.0
0.864718351702 0.0248727297936 0.0
0.733188083715 0.0366506209009 0.0
1.48977135484 0.0188843628301 0.0
1.45870472501 0.0320534584935 0.0
0.76257366212 -0.0292807483303 0.0
0.877955892997 -0.0407193321823 0.0
0.915845846153 -0.026504276427 0.0
0.720798949569 -8.20399067931e-05 0.0
0.777146468607 0.0361460869939 0.0
0.815423365315 0.0446255268031 0.0
0.731522235868 -0.0112870203725 0.0
1.48077978102 -0.0273496293954 0.0
1.46946096406 -0.0287874378243 0.0
1.47200805514 0.0140722673902 0.0
1.48535280802 -0.0241604496711 0.0
1.47305384478 0.0308994393127 0.0
1.47928938418 0.0211714367335 0.0
1.47627525597 -0.00794077020946 0.0
1.47586684918 0.000951305070358 0.0
1.41592983488 -0.00155108817733 0.0
1.35021775675 -0.0414241779883 0.0
1.31526179637 -0.0420671713916 0.0
1.48723238643 -0.0325861773997 0.0
1.48391942455 -0.050105064153 0.0
1.46153672768 0.0165184747673 0.0
1.44380730336 0.0173350823284 0.0
1.49215748461 0.0217173135902 0.0
1.45002415222 0.045623807969 0.0
1.47345074402 0.0253238261249 0.0
1.4675941509 0.0271527504698 0.0
1.45494866105 0.0293279746038 0.0
1.46039787381 -0.0197960930991 0.0
1.45603321387 -0.0280694746104 0.0
1.44303911279 0.0143690272073 0.0
1.46756806883 -0.0322072276147 0.0
0.710446614604 0.00999906792938 0.0
0.844650536347 0.0360862097721 0.0
0.74888145486 0.0383719941766 0.0
0.819185190008 0.0582237865358 0.0
0.827465709359 0.0242061974605 0.0
0.881958333006 -0.0388426268001 0.0
0.758214542989 -0.0257077046102 0.0
0.717206169675 -0.00419227311661 0.0
0.917408337514 -0.0308948038779 0.0
0.936207601161 0.000348580372178 0.0
0.836019507653 -0.0383078107683 0.0
1.18651167219 0.226102248846 0.0
0.846506236666 0.00614479068875 0.0
0.864608812388 -0.0325122831861 0.0
1.06650428057 -0.0399082616022 0.0
1.33482020327 -0.0404878976253 0.0
1.19278252988 -0.0950741308753 0.0
0.804998342307 -0.00405183230149 0.0
0.926163788459 0.0140497122217 0.0
0.81713898005 0.0449344234769 0.0
0.906386260542 0.0440013547759 0.0
0.837397647132 0.067554338309 0.0
0.897130850549 -0.0017672697267 0.0
0.763226705006 -0.0158520208899 0.0
0.925427386536 -0.0208470013623 0.0
0.91049355852 -0.0154908011861 0.0
0.766996553769 -0.0368729096501 0.0
1.41122623985 -0.0217664012425 0.0
1.36238465744 -0.00987257090219 0.0
0.829492319094 0.0249285525478 0.0
1.41210022466 0.0338198928593 0.0
1.39399660645 0.0281712158133 0.0
0.857442506584 -0.0409945639551 0.0
0.923697318423 0.0625239156145 0.0
1.42939259952 0.0267138491056 0.0
1.41553242462 0.0095473257776 0.0
0.928698226158 -0.00401392128339 0.0
0.802883929492 -0.00577892259696 0.0
1.432217691 -0.0299858893832 0.0
1.42609781205 -0.0253530889949 0.0
1.42287783762 0.025081999903 0.0
1.41966805923 -0.0146312914466 0.0
0.826592022811 -0.0253405988167 0.0
1.42162290728 0.0208419537021 0.0
1.35049558151 0.0441500781693 0.0
1.37154053016 -0.0494455757914 0.0
1.28263380067 0.00932007361046 0.0
1.26457636781 -0.0347956454723 0.0
1.26163037026 -0.0129923504748 0.0
1.26765765726 0.0388814644566 0.0
1.28593643965 0.0272049756782 0.0
1.26801831632 0.00159701888977 0.0
1.24623501753 0.037110273051 0.0
1.26147522007 0.00609451320542 0.0
1.26487940504 -0.00760163646718 0.0
1.23925107063 -0.0204576806387 0.0
1.26312197769 -0.0404796622012 0.0
1.29440744823 -0.0335039280138 0.0
1.24435977298 -0.0465350533339 0.0
1.26599978061 0.01656083406 0.0
1.27206610507 0.0248816090105 0.0
1.29235132501 0.0386894222101 0.0
1.2805873509 0.0194539657909 0.0
1.28489635554 0.0186605487733 0.0
1.21859151103 -0.0746991890426 0.0
1.32343160952 -0.0295504844038 0.0
1.25742557306 0.0054128287177 0.0
1.28115090988 0.0344306149325 0.0
1.25818425333 -0.0412756401197 0.0
1.24631749643 -0.0160177713977 0.0
1.2576388814 0.049027910009 0.0
1.36067828246 -0.0258412092608 0.0
1.24124432027 0.00112547565873 0.0
1.26660454824 -0.0116351288937 0.0
1.35815967713 -0.0249326007446 0.0
1.36475220798 -0.015425181531 0.0
0.97145556646 -0.131514619941 0.0
1.30678159721 -0.00251343974381 0.0
1.28638932567 -0.0117405930084 0.0
1.47561730516 -0.0279122882193 0.0
1.47766742239 -0.0101888096528 0.0
1.31306613929 -0.00149321322144 0.0
1.0361925662 0.0943055693356 0.0
0.654369833442 -0.00896364412105 0.0
1.22908841911 0.166474415224 0.0
1.01986187918 -0.0868456385153 0.0
1.29753986521 -0.00226111681927 0.0
1.36603066051 -0.0352025025159 0.0
1.29802164948 0.00394915007553 0.0
1.46541129526 -0.0134928843454 0.0
1.38712325691 0.0142650582967 0.0
0.823802612096 0.122425790804 0.0
0.752987290351 0.0474749812789 0.0
1.01000289742 -0.111246189522 0.0
0.928113127482 -0.0871489868923 0.0
1.45507493928 0.0210567424271 0.0
1.43132742021 0.0538058624808 0.0
0.75879565828 0.0527188847824 0.0
0.608609150887 0.0203962954986 0.0
0.754618501286 0.0149098582174 0.0
1.47275565187 0.027211637761 0.0
1.45465560874 -0.0278283407621 0.0
1.45055707465 -0.023232920966 0.0
1.42828297862 0.0345798348439 0.0
1.46378928683 -0.0182064437096 0.0
1.4703603393 -0.0338864390983 0.0
1.45734154413 0.0211797761497 0.0
1.46597242709 0.028156460278 0.0
0.631397581823 -0.0251755203653 0.0
0.685449416268 -0.0429475252441 0.0
1.47212981644 0.0268780646513 0.0
0.810368053452 0.0178917174535 0.0
0.579927735699 -0.0176229043629 0.0
0.685621257828 0.0489254851217 0.0
0.719426553132 0.0345869369733 0.0
0.709480466089 -0.0360008658654 0.0
0.755195304723 -0.0497222148852 0.0
0.601697907567 -0.015220862028 0.0
0.782052985367 -0.0530934533598 0.0
0.677802656119 0.0150896961401 0.0
0.748146822094 -0.0360778957941 0.0
0.576209269973 0.036458260032 0.0
0.691806423457 0.0269688487154 0.0
0.511227282424 0.0659401459156 0.0
1.1148997828 0.0334111305744 0.0
0.901581064995 -0.0280228602123 0.0
0.525338896972 0.00459476996156 0.0

SCALARS scalar1 double
LOOKUP_TABLE default
3.81538296452
6.7302434895
4.33267417907
4.82278150434
-5.93781463959
-2.54970789634
8.79288528846
7.56586999
5.76001991961
5.57719131473
5.89438995587
6.84727811873
7.58064580719
6.97461697905
5.93230049995
4.86532528254
4.38406698663
4.37472103327
4.60076565038
5.41417296393
6.25130733808
7.192761969
7.19329212735
6.60425314123
5.68352902257
4.89238849621
4.33670706613
4.27595171814
4.76022060674
5.19774138972
7.38870227537
5.33510006371
9.08232973
6.90338731342
6.26330036696
5.14579296177
4.44378290307
4.37216041824
4.49690704419
5.22192855957
6.08839564416
7.04371552873
7.18470692036
6.64651265083
5.731863325
5.06257713949
4.16553550019
4.42042583073
4.98536310725
5.65973631451
6.75053243174
7.13183373744
7.43323918827
6.09512109331
3.72429842389
1.32786567417
-0.983513357225
-3.10086433456
-5.22415849999
-4.83276168483
-4.16035535961
-4.27325077933
-5.42319614387
-6.15608443196
-7.62099938293
-7.15796179056
-6.57989528207
-6.02574570633
-5.04820547454
-4.29058014031
-4.41253010845
-4.85876469978
-5.21743087462
-6.51659521081
-7.09770519439
-7.14257010563
-7.10240332362
-7.57975335968
-4.21402414086
-4.66261280067
-4.58338311594
-4.93569045326
-5.61153600994
-5.5352335752
-9.06305377281
-7.73399443831
-6.55699824344
-5.88605477878
-5.01938473989
-4.31812409362
-4.53199751734
-4.77711295013
-5.25816209459
-6.39202785397
-7.59724155662
-7.19584082358
-6.8549635327
-6.26860784579
-5.17258317284
-5.03826936959
-5.22382826127
-5.29154522252
-6.58486187372
-7.79028181145
-9.75957163899
-12.6971257224
-13.2205511155
3.09272069668
-0.0234015114988
-0.0145440455126
-2.53342029349
0.110496031284
0.548375229996
0.786491046409
0.626334315607
0.818111888485
0.799444230716
1.08241829321
1.11148828859
1.15413232766
1.11110914918
1.15348595308
0.974885236288
1.02568871791
0.251043188842
0.37757827497
0.220850580418
2.56852021125
-0.730176192493
-1.94595467189
-1.45201511128
-1.76163856348
-1.42122790197
-1.59394244906
-1.47311864377
-1.36452620351
-1.48495936417
-1.46027564375
1.93365094334
1.10742660905
-0.996644928651
-1.7131752707
2.00071402557
1.92257967323
-0.191770272929
-1.6144099612
2.09502542753
2.48333824262
2.11434415289
2.14089828781
2.36946614579
2.34872432045
2.13551600406
2.13243693228
2.31471478126
0.891530282065
-2.07536378978
-1.95068768441
-2.05132705113
2.18767432956
2.21780704666
1.13757204935
2.78781477145
2.57616923046
2.32629626657
-2.85272876748
-1.92991790317
-2.20094344114
-2.96852482853
2.8436629294
2.83789617214
-2.5354378019
-2.22245634867
-2.37143063387
-2.58508695711
-2.67547423178
-2.56159129559
-2.69247701109
-2.30352226319
3.70776991721
3.39711021593
3.35839870287
3.40100172333
3.45537041779
3.76735678714
3.79812866631
3.93330612434
3.87861649269
-3.79937838532
-2.66930429554
-3.06489189119
-2.8681485299
2.27271557804
0.0566289076863
0.094795905835
-4.03674835174
-2.76395445129
0.167296278394
0.0749455718748
3.71477489628
3.42388750626
4.01625933324
-0.200727335096
-3.56906691479
-3.27540800209
-3.70659505409
-3.39829888572
-3.71130870807
-3.7495816133
-3.40689750577
-3.6710513618
-3.57418059361
-3.36747423059
-3.30929084466
3.85703316088
3.29550745641
3.57167443897
3.12953104171
3.2006190788
3.42792257475
3.96076839755
3.51641383351
0.00531768601782
0.0606801776848
3.85530876113
3.98510428518
0.545359703415
0.623366522575
3.85157637685
3.63466504429
3.63945805942
4.01610360564
4.08908504573
4.12651582442
4.01911679791
0.626623730916
0.7202481572
0.60654738362
0.628878605477
0.286425828717
0.601216031484
0.416573989823
0.492180849642
0.480929355468
0.335954390893
0.227848018788
0.367156489409
0.300464387314
0.554631788863
0.42777418675
0.431758641925
0.576642649622
0.515344446665
0.682583729477
0.474726895901
0.718140790981
0.72691474189
0.743564295878
0.677876746037
4.03295124263
3.93020229384
4.12599464611
3.85452241648
4.01049888334
3.61763654913
3.90202392474
3.97210006221
3.62024241439
-3.51091387134
-3.62581998199
0.329553922298
-3.90412785456
-3.8789862862
-3.27461309237
2.04327292198
-0.27565979021
-4.15957383675
-3.8013211696
-3.8303985928
-3.70975805637
-3.84206167929
-3.85974009955
-4.07050342162
-3.8779569205
-3.88946978821
-4.05277765872
-1.2978053744
-0.23482248905
-3.77168621727
-1.2406941566
-0.816298860641
-3.79409830114
3.51106293325
-0.971546756668
-1.08206578067
3.60265475218
-3.86668488413
-1.02897753221
-1.08840720783
-1.1620841928
-1.03595212912
3.77052524841
-1.12847184636
-1.51939304286
-1.5973671255
1.90929666444
1.71657913266
2.06151637352
2.35725361226
2.12720669096
2.45424409885
2.14496815906
2.15417983862
2.42516444297
2.19505654324
2.24405189018
1.83359526166
1.24170204432
2.20310169093
2.04339728077
2.12347657981
1.85080099029
1.97566024122
0.787759523053
1.83364771502
2.53641616652
2.12514685285
2.28451088834
2.20604764476
0.373627099516
-1.63934297094
2.17451740456
2.40201334458
-1.34679323656
-1.38765975151
3.40922407348
2.12408186144
2.03770924219
0.724836834305
0.690206188414
-1.96890908799
1.36052992872
-4.49627507868
-2.91275497211
-1.22225496593
2.39037772758
-1.54082423748
0.124613814883
-0.854680032616
-0.196384637184
-3.95556063593
4.23842656672
4.09886291129
-4.11995424121
-0.775510142435
-0.555932510061
-4.04662337764
-4.29262561461
-4.03302993177
-0.542188660901
-0.664695156769
-1.15839157631
-1.15059861346
-0.612214428529
-0.648924333656
-0.668884283592
-0.780866443739
-4.38517443257
-4.33606106395
-0.786115788207
-4.03640219653
-4.41364779864
-4.32932637079
-4.12583386948
4.40849756816
3.997282283
4.33540739377
3.88790075948
-4.65834612846
-4.24607584672
4.53339394918
4.23780348992
4.45555120833
1.16519991657
-4.31780844173
-4.48428131073

SCALARS scalar2 double
LOOKUP_TABLE default
3.81538296452
6.7302434895
4.33267417907
4.82278150434
-5.93781463959
-2.54970789634
8.79288528846
7.56586999
5.76001991961
5.57719131473
5.89438995587
6.84727811873
7.58064580719
6.97461697905
5.93230049995
4.86532528254
4.38406698663
4.37472103327
4.60076565038
5.41417296393
6.25130733808
7.192761969
7.19329212735
6.60425314123
5.68352902257
4.89238849621
4.33670706613
4.27595171814
4.76022060674
5.19774138972
7.38870227537
5.33510006371
9.08232973
6.90338731342
6.26330036696
5.14579296177
4.44378290307
4.37216041824
4.49690704419
5.22192855957
6.08839564416
7.04371552873
7.18470692036
6.64651265083
5.731863325
5.06257713949
4.16553550019
4.42042583073
4.98536310725
5.65973631451
6.75053243174
7.13183373744
7.43323918827
6.09512109331
3.72429842389
1.32786567417
-0.983513357225
-3.10086433456
-5.22415849999
-4.83276168483
-4.16035535961
-4.27325077933
-5.42319614387
-6.15608443196
-7.62099938293
-7.15796179056
-6.57989528207
-6.02574570633
-5.04820547454
-4.29058014031
-4.41253010845
-4.85876469978
-5.21743087462
-6.51659521081
-7.09770519439
-7.14257010563
-7.10240332362
-7.57975335968
-4.21402414086
-4.66261280067
-4.58338311594
-4.93569045326
-5.61153600994
-5.5352335752
-9.06305377281
-7.73399443831
-6.55699824344
-5.88605477878
-5.01938473989
-4.31812409362
-4.53199751734
-4.77711295013
-5.25816209459
-6.39202785397
-7.59724155662
-7.19584082358
-6.8549635327
-6.26860784579
-5.17258317284
-5.03826936959
-5.22382826127
-5.29154522252
-6.58486187372
-7.79028181145
-9.75957163899
-12.6971257224
-13.2205511155
3.09272069668
-0.0234015114988
-0.0145440455126
-2.53342029349
0.110496031284
0.548375229996
0.786491046409
0.626334315607
0.818111888485
0.799444230716
1.08241829321
1.11148828859
1.15413232766
1.11110914918
1.15348595308
0.974885236288
1.02568871791
0.251043188842
0.37757827497
0.220850580418
2.56852021125
-0.730176192493
-1.94595467189
-1.45201511128
-1.76163856348
-1.42122790197
-1.59394244906
-1.47311864377
-1.36452620351
-1.48495936417
-1.46027564375
1.93365094334
1.10742660905
-0.996644928651
-1.7131752707
2.00071402557
1.92257967323
-0.191770272929
-1.6144099612
2.09502542753
2.48333824262
2.11434415289
2.14089828781
2.36946614579
2.34872432045
2.13551600406
2.13243693228
2.31471478126
0.891530282065
-2.07536378978
-1.95068768441
-2.05132705113
2.18767432956
2.21780704666
1.13757204935
2.78781477145
2.57616923046
2.32629626657
-2.85272876748
-1.92991790317
-2.20094344114
-2.96852482853
2.8436629294
2.83789617214
-2.5354378019
-2.22245634867
-2.37143063387
-2.58508695711
-2.67547423178
-2.56159129559
-2.69247701109
-2.30352226319
3.70776991721
3.39711021593
3.35839870287
3.40100172333
3.45537041779
3.76735678714
3.79812866631
3.93330612434
3.87861649269
-3.79937838532
-2.66930429554
-3.06489189119
-2.8681485299
2.27271557804
0.0566289076863
0.094795905835
-4.03674835174
-2.76395445129
0.167296278394
0.0749455718748
3.71477489628
3.42388750626
4.01625933324
-0.200727335096
-3.56906691479
-3.27540800209
-3.70659505409
-3.39829888572
-3.71130870807
-3.7495816133
-3.40689750577
-3.6710513618
-3.57418059361
-3.36747423059
-3.30929084466
3.85703316088
3.29550745641
3.57167443897
3.12953104171
3.2006190788
3.42792257475
3.96076839755
3.51641383351
0.00531768601782
0.0606801776848