# vtk DataFile Version 2.0
2D Simulation Python
ASCII
DATASET UNSTRUCTURED_GRID
FIELD FieldData 1
NODES 1 2 int
386 659

POINTS 386 double
0.0 1.0 0.0
1.725 0.9917131702036277 0.0
8.275 1.0082868297963723 0.0
10.0 1.0 0.0
10.0 -1.3346080967681253e-17 0.0
0.0 0.0 0.0
0.1916666666663293 1.0061726397389434 0.0
0.3833333333324708 1.0101740681235898 0.0
0.574999999998553 1.010596792232024 0.0
0.7666666666645966 1.00729211986403 0.0
0.9583333333312576 1.0014224616690062 0.0
1.149999999998384 0.9950524559634338 0.0
1.341666666665662 0.9904227371112093 0.0
1.533333333332819 0.9891617977126462 0.0
1.92348484848444 0.9974055236691097 0.0
2.121969696968978 1.0040744086045064 0.0
2.320454545453434 1.009209732344445 0.0
2.518939393937826 1.010878617267139 0.0
2.717424242422235 1.0084529140126364 0.0
2.915909090906411 1.0028456297787665 0.0
3.1143939393908 0.9961672827652476 0.0
3.312878787875129 0.9909315270563596 0.0
3.511363636359531 0.9891090417281123 0.0
3.709848484843827 0.9913857895913032 0.0
3.90833333332816 0.9969048285682616 0.0
4.106818181812215 1.0035888549732623 0.0
4.305303030296804 1.008922077063506 0.0
4.503787878781365 1.0108971305222727 0.0
4.702272727265711 1.0087706276245445 0.0
4.900757575750005 1.003342959946756 0.0
5.099242424235156 0.9966570400537275 0.0
5.297727272720327 0.991229372375739 0.0
5.496212121205663 0.9891028694777332 0.0
5.694696969690998 0.9910779229362551 0.0
5.89318181817668 0.9964111450263796 0.0
6.09166666666213 1.0030951714314194 0.0
6.290151515147423 1.0086142104085134 0.0
6.488636363633031 1.010890958271879 0.0
6.687121212118713 1.009068472943758 0.0
6.885606060604342 1.003832717234908 0.0
7.084090909089381 0.9971543702213733 0.0
7.282575757574369 0.9915470859874373 0.0
7.481060606059355 0.9891213827328655 0.0
7.679545454544343 0.9907902676555146 0.0
7.878030303029329 0.9959255913954396 0.0
8.076515151514705 1.0025944763308616 0.0
8.46666666666447 1.0108382022873443 0.0
8.658333333329285 1.009577262888873 0.0
8.84999999999549 1.0049475440367537 0.0
9.041666666661694 0.9985775383312331 0.0
9.233333333327899 0.9927078801361608 0.0
9.42499999999549 0.989403207768022 0.0
9.616666666663775 0.9898259318763643 0.0
9.808333333331985 0.9938273602610083 0.0
10.0 0.7999999999999998 0.0
10.0 0.6000000000013869 0.0
10.0 0.4000000000016644 0.0
10.0 0.2000000000008322 0.0
9.799999999999999 -0.0064056261561832376 0.0
9.6 -0.010364520839929748 0.0
9.399999999999999 -0.01036452083992973 0.0
9.2 -0.006405626156183151 0.0
8.999999999999998 8.944572484506963e-17 0.0
8.799999999999997 0.006405626156183273 0.0
8.599999999999998 0.010364520839929763 0.0
8.399999999999997 0.010364520839929715 0.0
8.199999999999998 0.006405626156183128 0.0
7.999999999999997 -8.811111674830147e-17 0.0
7.799999999999997 -0.006405626156183273 0.0
7.599999999999998 -0.010364520839929763 0.0
7.399999999999997 -0.010364520839929715 0.0
7.199999999999998 -0.0064056261561831526 0.0
6.999999999999997 8.677650865153331e-17 0.0
6.799999999999997 0.006405626156183287 0.0
6.599999999999998 0.010364520839929763 0.0
6.399999999999997 0.010364520839929682 0.0
6.199999999999998 0.006405626156183138 0.0
5.999999999999997 -8.544190055476525e-17 0.0
5.799999999999998 -0.00640562615618326 0.0
5.599999999999998 -0.010364520839929763 0.0
5.399999999999999 -0.01036452083992974 0.0
5.199999999999998 -0.006405626156183138 0.0
4.999999999999999 4.5390166470918935e-17 0.0
4.799999999999999 0.006405626156183197 0.0
4.599999999999999 0.010364520839929782 0.0
4.399999999999999 0.01036452083992972 0.0
4.199999999999999 0.006405626156183175 0.0
3.999999999999999 -4.4055558374150734e-17 0.0
3.799999999999999 -0.006405626156183206 0.0
3.599999999999999 -0.010364520839929768 0.0
3.399999999999998 -0.01036452083992972 0.0
3.199999999999998 -0.006405626156183109 0.0
2.999999999999999 4.2720950277382626e-17 0.0
2.799999999999998 0.006405626156183241 0.0
2.599999999999998 0.010364520839929772 0.0
2.399999999999999 0.010364520839929737 0.0
2.199999999999999 0.006405626156183141 0.0
1.999999999999998 -7.042418667092309e-17 0.0
1.799999999999999 -0.006405626156183237 0.0
1.6 -0.010364520839929734 0.0
1.4 -0.010364520839929734 0.0
1.199999999999999 -0.006405626156183149 0.0
0.9999999999999982 6.424993782577029e-17 0.0
0.7999999999999989 0.006405626156183237 0.0
0.6000000000000014 0.010364520839929732 0.0
0.3999999999999986 0.010364520839929732 0.0
0.1999999999999993 0.006405626156183164 0.0
0.0 0.1999999999995579 0.0
0.0 0.3999999999989749 0.0
0.0 0.5999999999989468 0.0
0.0 0.7999999999994734 0.0
0.6588466638044683 0.5561651868242223 0.0
9.341152807171905 0.5357731151941714 0.0
8.741432858625084 0.5757070841607038 0.0
1.258564181791705 0.5592164364038943 0.0
8.162841466986327 0.5782052313956502 0.0
1.8371433306007208 0.5674016247912435 0.0
2.430441343944396 0.6102585550415317 0.0
7.5694774572378725 0.5853511591248028 0.0
3.030492231836205 0.6011909196852463 0.0
6.969026195421106 0.601257333812711 0.0
3.6286638868933543 0.589438980862647 0.0
6.367982676736062 0.6020782481402105 0.0
4.229400763235524 0.5993443882977534 0.0
5.795134238825699 0.5190166219212888 0.0
4.802478513960461 0.534917780119631 0.0
5.298820265936849 0.5078529639625471 0.0
9.677454512499736 0.6887325619158149 0.0
0.32254534588454836 0.7122813007606889 0.0
4.530525388878664 0.35144780476583926 0.0
3.918822753075 0.3693919796641894 0.0
6.067964741629716 0.3395770635566076 0.0
3.319411573441348 0.36628268910753514 0.0
6.679655361862096 0.38217902930391234 0.0
7.878986058400016 0.3624932390649407 0.0
2.120982382676456 0.3723697695620471 0.0
2.7201102804368626 0.3850248278112812 0.0
7.279714274566505 0.36542125803013975 0.0
9.037270252058939 0.6710145609331625 0.0
0.9627286382074255 0.6740657555290857 0.0
1.5320838322565522 0.34863659682323955 0.0
8.467910234516278 0.3720542636526998 0.0
8.458294157308085 0.6926474070796825 0.0
1.5417001520605689 0.6673557396802845 0.0
0.9793998562893969 0.36602501846809793 0.0
9.020598902377486 0.36462245691968037 0.0
4.527199769317741 0.7044862393414476 0.0
3.9214025878882635 0.6980501550930965 0.0
6.069685664693396 0.6930866291340287 0.0
2.1183769838637416 0.6972996118396898 0.0
7.881594513771741 0.6865250010855232 0.0
3.323361141220299 0.6930985270911442 0.0
6.67555662579446 0.7132344372920607 0.0
2.7253711502809104 0.7149570071966044 0.0
7.2744627665322765 0.6925645527719477 0.0
0.3328395747794919 0.31488622973700453 0.0
9.667160270660979 0.29237884099412453 0.0
5.581324221246222 0.30599627100454396 0.0
5.017220604733413 0.3199318709842551 0.0
5.509457728370847 0.6784390109553499 0.0
5.087392119896399 0.6892499356253453 0.0
0.6619005028176516 0.7479990913593726 0.0
9.338099100770396 0.7231083216655505 0.0
8.747624322310664 0.7499793838762079 0.0
1.2523735067225463 0.7301164701486024 0.0
8.670387996430952 0.28758955479636483 0.0
1.3296091074295278 0.26461231905532956 0.0
0.6804015877780641 0.24923863921452577 0.0
9.319598019072508 0.22461078014422392 0.0
8.169908009970815 0.7519172172721525 0.0
1.8300810291337275 0.7378623585781762 0.0
8.082241629500412 0.28123418723218174 0.0
1.9177431176805848 0.27504193894061596 0.0
7.485180602669933 0.2717405981878306 0.0
2.514735554854593 0.2994001597003716 0.0
6.885160971509495 0.2906375806360988 0.0
3.1144048569146787 0.2830597594851322 0.0
6.284935236325092 0.28096290759994097 0.0
3.713789034855495 0.27575718451985753 0.0
2.4224492990755917 0.8249622789011164 0.0
7.577503972218844 0.7991601024061572 0.0
3.0216051023079293 0.8141754432070883 0.0
6.978106166727861 0.8145806033982903 0.0
3.6184596421992716 0.8019180089461923 0.0
6.379474973054236 0.8219325904496855 0.0
4.216884892015278 0.8180610752555967 0.0
5.793598401632151 0.8342692089941276 0.0
4.8025749799723805 0.8509804553691863 0.0
5.299579323786435 0.17421404955297987 0.0
4.313878961985148 0.2831738270678408 0.0
4.743204930215317 0.24764143769478486 0.0
5.855724988561425 0.23056889048575524 0.0
5.298372065822701 0.7050473455907539 0.0
0.19483726545464247 0.5090515841427878 0.0
9.805162637772755 0.4952155553774199 0.0
9.486963246106821 0.14891828359905954 0.0
0.5130365813977045 0.17576649670287717 0.0
9.56892552609512 0.5008166203037893 0.0
0.43107420969187316 0.5236030468498024 0.0
9.509138638911464 0.8225337052368907 0.0
0.4908612020727684 0.8501695830075586 0.0
9.823684717815905 0.8196070201634063 0.0
0.17631523555267528 0.8358721366247138 0.0
7.690675629539905 0.18202204214419157 0.0
2.309290966611656 0.2034077148416509 0.0
8.876663742259325 0.19678461424316385 0.0
1.1233350656174896 0.18683835724290399 0.0
7.090880445048205 0.19158203995422582 0.0
2.908943039731889 0.19880618381375065 0.0
6.491076255812781 0.20205051090662993 0.0
3.508532319762944 0.18294678635872252 0.0
1.7133213933181688 0.178704834966209 0.0
8.286672460942068 0.19757093376090296 0.0
4.108122723943642 0.19464522235452222 0.0
8.57756011035756 0.8412130222335396 0.0
1.4224373861513264 0.8159561325847579 0.0
8.923332983688299 0.8296364362405465 0.0
1.0766660628886324 0.822963339195305 0.0
0.8418680963051444 0.8314199300448933 0.0
9.15813142220135 0.8183993059637833 0.0
8.34585038074054 0.8411555861140945 0.0
1.654144779901565 0.8182769083835265 0.0
5.592449091922616 0.4904496873730917 0.0
5.005265137349838 0.503252659266462 0.0
7.789405116113127 0.8311003737573873 0.0
2.2105728083777625 0.847690855395649 0.0
7.776865092430096 0.5437431599856726 0.0
2.2230886551541036 0.5602183528067199 0.0
2.8152765663373454 0.852468564905357 0.0
7.184590608436076 0.836553388528333 0.0
3.4120551985226815 0.8318713648834275 0.0
6.587034821616486 0.855477688434987 0.0
4.009202329895886 0.8427298973084384 0.0
5.984832286107969 0.8424023892152903 0.0
4.611344714653103 0.8562705285387057 0.0
7.175166175488269 0.5530293379641468 0.0
2.824567007952356 0.5671726041717582 0.0
6.575204024445972 0.5664822984019476 0.0
3.423088893564035 0.5490744870119569 0.0
5.978030924595342 0.5295334885300014 0.0
4.022407996335527 0.5559071718295905 0.0
4.619575531590922 0.5431551140486663 0.0
8.548997330360457 0.5516862844948371 0.0
[...]
POINT_DATA 386
VECTORS vector double
1.0 0.0 0.0
0.0 0.0 0.0
0.0 0.0 0.0
0.0 0.0 0.0
0.0 0.0 0.0
1.0 0.0 0.0
0.0 0.0 0.0
0.0 0.0 0.0
0.0 0.0 0.0
0.0 0.0 0.0
0.0 0.0 0.0
0.0 0.0 0.0
0.0 0.0 0.0
0.0 0.0 0.0
0.0 0.0 0.0
0.0 0.0 0.0
0.0 0.0 0.0
0.0 0.0 0.0
0.0 0.0 0.0
0.0 0.0 0.0
0.0 0.0 0.0
0.0 0.0 0.0
0.0 0.0 0.0
0.0 0.0 0.0
0.0 0.0 0.0
0.0 0.0 0.0
0.0 0.0 0.0
0.0 0.0 0.0
0.0 0.0 0.0
0.0 0.0 0.0
0.0 0.0 0.0
0.0 0.0 0.0
0.0 0.0 0.0
0.0 0.0 0.0
0.0 0.0 0.0
0.0 0.0 0.0
0.0 0.0 0.0
0.0 0.0 0.0
0.0 0.0 0.0
0.0 0.0 0.0
0.0 0.0 0.0
0.0 0.0 0.0
0.0 0.0 0.0
0.0 0.0 0.0
0.0 0.0 0.0
0.0 0.0 0.0
0.0 0.0 0.0
0.0 0.0 0.0
0.0 0.0 0.0
0.0 0.0 0.0
0.0 0.0 0.0
0.0 0.0 0.0
0.0 0.0 0.0
0.0 0.0 0.0
0.900135755847 0.101444739599 0.0
1.40033257016 0.00117188038496 0.0
1.42463677616 -0.00715842138742 0.0
1.01087061962 -0.0828647990836 0.0
0.0 0.0 0.0
0.0 0.0 0.0
0.0 0.0 0.0
0.0 0.0 0.0
0.0 0.0 0.0
0.0 0.0 0.0
0.0 0.0 0.0
0.0 0.0 0.0
0.0 0.0 0.0
0.0 0.0 0.0
0.0 0.0 0.0
0.0 0.0 0.0
0.0 0.0 0.0
0.0 0.0 0.0
0.0 0.0 0.0
0.0 0.0 0.0
0.0 0.0 0.0
0.0 0.0 0.0
0.0 0.0 0.0
0.0 0.0 0.0
0.0 0.0 0.0
0.0 0.0 0.0
0.0 0.0 0.0
0.0 0.0 0.0
0.0 0.0 0.0
0.0 0.0 0.0
0.0 0.0 0.0
0.0 0.0 0.0
0.0 0.0 0.0
0.0 0.0 0.0
0.0 0.0 0.0
0.0 0.0 0.0
0.0 0.0 0.0
0.0 0.0 0.0
0.0 0.0 0.0
0.0 0.0 0.0
0.0 0.0 0.0
0.0 0.0 0.0
0.0 0.0 0.0
0.0 0.0 0.0
0.0 0.0 0.0
0.0 0.0 0.0
0.0 0.0 0.0
0.0 0.0 0.0
0.0 0.0 0.0
0.0 0.0 0.0
0.0 0.0 0.0
0.0 0.0 0.0
0.0 0.0 0.0
1.0 0.0 0.0
1.0 0.0 0.0
1.0 0.0 0.0
1.0 0.0 0.0
1.238528104 -0.0487608585295 0.0
1.4644579836 -0.0368328752738 0.0
1.43907068114 -0.0156369342903 0.0
1.3564977567 -0.0281414259544 0.0
1.43595799108 0.0294465775272 0.0
1.4113388941 0.0292988312644 0.0
1.38067639502 0.0144350930389 0.0
1.43232333907 0.000592735037959 0.0
1.40573602388 -0.029539037818 0.0
1.40964484785 -0.0246307030778 0.0
1.42971865577 0.00165379615143 0.0
1.39883896949 0.0181415045809 0.0
1.40349954894 0.0205819471886 0.0
1.45797511412 0.021890936002 0.0
1.45835649107 -0.0212103344151 0.0
1.51049021589 -0.0186375545974 0.0
1.29465645854 0.00346701002347 0.0
1.08955185135 -0.0794280941826 0.0
1.35983364657 0.0107410385455 0.0
1.36418992401 0.0278173944372 0.0
1.31182509908 0.0275054423722 0.0
1.35056836882 -0.0206412845091 0.0
1.39823864284 -0.0108768447257 0.0
1.3489798567 0.0278835623653 0.0
1.38201053725 0.0476631639914 0.0
1.40264318661 -0.0138146521248 0.0
1.35276073677 -0.0270219476936 0.0
1.32187569541 -0.0447023727541 0.0
1.24060385335 -0.0627044967776 0.0
1.3319811204 0.028701231104 0.0
1.39074995871 0.0106670274404 0.0
1.27203858947 0.00836091314188 0.0
1.30632133258 0.00521407060486 0.0
1.34226183409 -0.0166547070531 0.0
1.37530349625 -0.0464337636436 0.0
1.22505109534 -0.00388199457112 0.0
1.2491691921 0.030975287685 0.0
1.25927053284 0.0370833834573 0.0
1.23976452645 0.0427586923293 0.0
1.28666846051 0.0251872221773 0.0
1.27236708857 -0.0222955264944 0.0
1.208494592 -0.0125388182608 0.0
1.19803552306 -0.0136166346622 0.0
1.27345611698 -0.0287832924947 0.0
1.18747574921 0.124166573095 0.0
1.26556082962 -0.014671517848 0.0
1.24237073628 0.00742334957189 0.0
1.28041781077 -0.0359061905938 0.0
1.28492963859 0.0296498323891 0.0
1.2424142363 -0.0623633607885 0.0
1.12481824727 -0.0841396767801 0.0
1.23147219147 -0.0389315806317 0.0
1.14125433411 -0.0217786687948 0.0
1.17289023544 -0.0458574685193 0.0
1.23215854884 -0.00995686632478 0.0
1.18997143752 -0.00450505857181 0.0
1.25272058885 0.00272622308691 0.0
1.08005782716 -0.0371472892533 0.0
1.1393474004 0.0331039136042 0.0
1.17014372402 0.0323181667913 0.0
1.20257690573 0.0472231262177 0.0
1.20248979777 0.0342352314553 0.0
1.16066734402 0.000408073125829 0.0
1.27037431233 0.00540723460617 0.0
1.22544819037 -0.0250219640252 0.0
1.19647889666 -0.0436378042295 0.0
1.21770311151 0.0360187368221 0.0
1.17368995687 0.00328214316646 0.0
0.907018910421 0.0098255490155 0.0
0.947798540548 0.00606453972997 0.0
0.931590065157 -0.0338786285251 0.0
0.934582563864 -0.0330943177912 0.0
0.93740128497 0.00783791585051 0.0
0.92047263495 0.0152341606084 0.0
0.915511874907 0.025102105885 0.0
0.831315569153 0.0303006117635 0.0
0.80998213385 -0.0232979797865 0.0
0.917285014801 -0.018508611197 0.0
1.23160396693 0.0242788428821 0.0
1.02214517708 -0.046599187012 0.0
0.984798048051 0.0394479763893 0.0
1.14237769603 -0.0225156134611 0.0
1.01812501862 0.0145054489358 0.0
1.47542980226 -0.00893222015484 0.0
0.836565429902 -0.0102267702531 0.0
1.08816382979 0.0641747536585 0.0
1.48370921817 -0.0214643195591 0.0
1.13523427972 -0.0129897472315 0.0
0.813982876565 -0.0137446872817 0.0
1.01626189688 -0.0693489773357 0.0
0.780069639157 -0.0455541948683 0.0
1.09901925107 -0.101810643644 0.0
0.929342962375 0.0068302951759 0.0
0.9812211154 0.0428626721761 0.0
0.931282082031 -0.0448963999678 0.0
1.03504512391 -0.0103349306399 0.0
0.933454886157 -0.042787283124 0.0
0.954301880779 -0.0238119240208 0.0
0.953664658149 -0.00380331130804 0.0
0.930098709502 0.00322201545131 0.0
0.96922704737 0.0380612177012 0.0
0.94405932117 0.0183004229057 0.0
0.95278752344 0.0465496780323 0.0
0.83727520494 -0.00778645148808 0.0
0.86403553331 -0.00516705581798 0.0
0.863093525878 -0.0232930656049 0.0
0.894964031475 -0.0633425807152 0.0
0.924760612203 -0.0543650650305 0.0
0.874824406616 -0.0509304210393 0.0
0.830452214088 0.0246474359432 0.0
0.852616854833 -0.00219607793942 0.0
1.46486094119 -0.00691901851876 0.0
1.46748829973 -0.0163156128774 0.0
0.813645635905 0.0165487241489 0.0
0.791816600764 0.0290678249647 0.0
1.48583374412 0.0220842180998 0.0
1.45732735387 0.0291868436476 0.0
0.797713021099 -0.0250980053231 0.0
0.823295758255 -0.0270797139225 0.0
0.816607114091 -0.0136908328775 0.0
0.795474715945 7.19054193971e-05 0.0
0.797527914784 0.0265421143962 0.0
0.82179727526 0.0360393360297 0.0
0.800636371606 -0.0116203412706 0.0
1.48309293252 -0.0253746339352 0.0
1.46746910435 -0.0302991405581 0.0
1.47130593397 0.0105829494606 0.0
1.48485384348 -0.019187224997 0.0
1.47185757417 0.0298583444783 0.0
1.47793643042 0.019780103494 0.0
1.47530544917 -0.010843713286 0.0
1.47488798229 -0.00440941706772 0.0
1.41424189074 0.00298881901902 0.0
1.3528587821 -0.0393133032593 0.0
1.31801612253 -0.0435095840941 0.0
1.48588193227 -0.0344859281505 0.0
1.48380792789 -0.0499084023491 0.0
1.46233343127 0.0141195259078 0.0
1.44520083913 0.0238813158815 0.0
1.48910822877 0.020205288311 0.0
1.44693341637 0.0452075227022 0.0
1.47192565069 0.0240292595546 0.0
1.46015298168 0.0290090759196 0.0
1.45866853348 0.0269255147452 0.0
1.46267460963 -0.0166890290845 0.0
1.45441057283 -0.0299691418154 0.0
1.44581032578 0.0114267295043 0.0
1.46334069785 -0.0271008853461 0.0
0.787784671486 0.00748459691621 0.0
0.799817353513 0.0263385935562 0.0
0.803983355951 0.0275711541269 0.0
0.829646017503 0.0490448052195 0.0
0.835990762879 0.0136069581522 0.0
0.818323807626 -0.0256216121602 0.0
0.800597132257 -0.0228461475359 0.0
0.789496549376 -0.00307843950259 0.0
0.820755778477 -0.0161894063194 0.0
0.90607833472 0.0230351467817 0.0
0.894638719945 -0.0393553349757 0.0
1.17548984541 0.210725037273 0.0
0.869746501932 -0.00506845444237 0.0
0.890383497044 -0.0291304191893 0.0
1.05194441687 -0.0356472681915 0.0
1.35684264665 -0.0371852189595 0.0
1.17326585416 -0.0910937519246 0.0
0.889025303716 0.0085022734941 0.0
0.831538952548 0.0182296052432 0.0
0.838903163369 0.0382118210781 0.0
0.871568463121 0.0315317518864 0.0
0.805228072676 0.0564189319322 0.0
0.806780183063 -0.0140250186551 0.0
0.823389395509 -0.014730196514 0.0
0.859905513141 -0.0260810439602 0.0
0.841786880468 -0.00746224558379 0.0
0.831327838152 -0.0263735397107 0.0
1.41619975574 -0.0262466038625 0.0
1.3525517925 -0.00871239658631 0.0
0.844765743604 0.0220334831119 0.0
1.42235939841 0.0331738398235 0.0
1.38641367138 0.0330862542794 0.0
0.886771907891 -0.0340544751754 0.0
0.854239219356 0.105828060325 0.0
1.44248166192 0.0248327235561 0.0
1.40103704194 0.0138017773842 0.0
0.840125390114 -0.00921940541994 0.0
0.875427762294 0.000784442640289 0.0
1.43131441579 -0.0318626043186 0.0
1.42090675878 -0.0251288793712 0.0
1.43786398963 0.0217327809055 0.0
1.40572462887 -0.00995046727318 0.0
0.826969438479 -0.00953871590862 0.0
1.42851896416 0.021317879466 0.0
1.33400699378 0.0407784914346 0.0
1.38036349813 -0.0573849058826 0.0
1.2684981341 0.00602716280498 0.0
1.28048649362 -0.0287186301736 0.0
1.24320134121 -0.0147551659712 0.0
1.24931556866 0.0376357769706 0.0
1.29153138563 0.0309644506493 0.0
1.30084299454 0.0116198678541 0.0
1.21427274755 0.0365118757671 0.0
1.22627578447 -0.00398304137137 0.0
1.30271067494 -0.00587202975778 0.0
1.23442694597 -0.0207262334701 0.0
1.27247064767 -0.0402522588309 0.0
1.28904455385 -0.0368220919218 0.0
1.24930885016 -0.0445987872072 0.0
1.23541315294 0.0081767622516 0.0
1.27068418483 0.0266728296929 0.0
1.28879778634 0.0364636131708 0.0
1.29204782713 0.0239954301311 0.0
1.27022737429 0.0143194121075 0.0
1.21382600232 -0.079246932616 0.0
1.33417199358 -0.0319280801753 0.0
1.28896462508 0.0162104119713 0.0
1.24871689843 0.0345775614785 0.0
1.27113465748 -0.0402702244887 0.0
1.23846701479 -0.0164712766775 0.0
1.27590413207 0.0465393769639 0.0
1.34596698247 -0.0230327212898 0.0
1.20517101001 -0.00882342662479 0.0
1.30552278231 -0.0105781089807 0.0
1.33400200141 -0.0205981085904 0.0
1.34723965135 -0.0158342038769 0.0
0.861468581037 -0.148310134412 0.0
1.3324477968 0.00587485598953 0.0
1.28020446471 -0.012638273001 0.0
1.49000996167 -0.0326135953518 0.0
1.49398493646 -0.00286430302318 0.0
1.31081498351 0.00218146056409 0.0
1.04029608439 0.109114695735 0.0
0.731783640236 -0.00552720827798 0.0
1.10686867353 0.171302276096 0.0
1.02759577482 -0.0678096873223 0.0
1.30396852071 0.000328139295758 0.0
1.35749666305 -0.0356294323284 0.0
1.29732661702 -0.000968676677769 0.0
1.46096338502 -0.0183377763332 0.0
1.3915630636 0.0203871601966 0.0
0.850487280548 0.0972921246614 0.0
0.66816930552 0.041705583554 0.0
1.09390911813 -0.101208105126 0.0
0.849406314215 -0.0921815943392 0.0
1.45456110991 0.0209037247821 0.0
1.43243600293 0.0548880844319 0.0
0.657482264007 0.0507436384915 0.0
0.681815532148 0.016327668857 0.0
0.65275065348 -0.00128377090408 0.0
1.46963336233 0.0216098046105 0.0
1.45450290538 -0.0248941884225 0.0
1.45797516351 -0.0241235392192 0.0
1.42013671423 0.0345926367864 0.0
1.46331756642 -0.015546032426 0.0
1.46706197584 -0.035752603669 0.0
1.45688808552 0.0257442748716 0.0
1.46474675218 0.0273146165278 0.0
0.667501968894 -0.0197778493636 0.0
0.666537296206 -0.0377962496195 0.0
1.47146343019 0.0219765308364 0.0
0.689190360893 0.0222796409939 0.0
0.670061866668 -0.0105534381591 0.0
0.716457622081 0.0393325794741 0.0
0.67429636861 0.0222326127394 0.0
0.798300205752 -0.0406222991039 0.0
0.644805578093 -0.045490049715 0.0
0.666378878496 -0.012051099682 0.0
0.686992035385 -0.0364867678651 0.0
0.774605147242 0.0171665973494 0.0
0.661339814893 -0.0365898847835 0.0
0.638345122272 0.0289472156974 0.0
0.641076647248 0.0152064603846 0.0
0.478260763793 0.0309010129139 0.0
1.08947950221 -0.0399592154614 0.0
0.785170171984 -0.0251660520105 0.0
0.615627094031 0.00452547233694 0.0

SCALARS scalar1 double
LOOKUP_TABLE default
2.83445114463
5.62653897053
5.22334473849
4.81142724415
-6.12936158486
-2.36340373933
9.91451773289
9.38011798337
7.14918474515
6.45978175123
5.89137257776
5.87608714421
5.93474060448
5.60468960414
5.58409146103
5.25142833371
5.18995022765
5.29932154153
5.36575961345
5.59974254235
5.69233373014
5.80863473783
5.78797418473
5.66704245133
5.47060423279
5.3405976928
5.13940437976
5.27949399304
5.57174179258
5.49354152967
7.01842550673
4.27960594965
7.1769016329
5.69126317432
5.87111147647
5.49759252888
5.19145891972
5.27836808912
5.31512772694
5.53320511828
5.68909930468
5.79143172274
5.78776816171
5.64146320679
5.44426978698
5.54407019792
5.08964362745
5.38243319795
5.54223097211
5.44064428826
5.50898495664
5.40407230731
5.87209566285
5.04293425237
3.60672978993
1.33792906174
-0.969642392044
-3.1774708057
-6.17170767557
-6.00254922426
-5.35463372762
-5.10760696942
-5.49230380597
-5.33277485553
-5.98144142777
-5.86952063144
-5.71375005077
-5.84178215216
-5.55049350528
-5.24073693443
-5.48642929035
-5.43804641338
-5.22773737702
-5.78116660461
-5.93513266102
-5.66353864895
-5.89338574862
-7.19369982054
-4.65538846793
-5.5351434224
-5.44744212784
-5.50844384424
-5.71447062168
-4.84627294948
-7.2051580768
-5.8804436303
-5.52282944618
-5.83713582203
-5.70315496707
-5.20004681547
-5.34334609608
-5.46901438832
-5.39831484054
-5.75426640226
-5.97400239536
-5.70435294911
-6.09176206645
-6.21629081505
-5.73253442967
-5.97492613909
-6.57617004159
-6.22033069552
-6.66777710042
-6.67598553063
-7.58072263094
-9.90848218305
-11.2149703897
3.23752644532
0.0598484316741
-0.00841140366474
-2.02958770497
0.0309561475583
0.502710341832
0.797878284562
0.608789863635
0.861043705037
0.80600725584
1.20373761943
0.965772362839
1.11374274818
1.09491710009
1.02106129212
1.09106060791
1.13622205597
0.250990491996
0.355362724455
0.13721818144
2.26645915709
-0.535807033815
-1.65123188611
-1.48054069722
-1.76566892811
-1.60503411668
-1.35510414482
-1.59965206557
-1.25267220594
-1.29778085663
-1.59391301462
1.91531618473
1.19490018188
-1.22969396558
-1.47368170945
2.23815459642
1.61178360636
-0.20172700493
-1.6086419757
2.36972328318
2.26790880714
2.16996060406
2.188688442
2.13753187447
2.12534713382
2.42120215479
2.40590639098
2.12868444395
1.13621791354
-2.32203725084
-2.17837231416
-2.05721534392
1.8976271259
2.11278617582
1.4789612262
2.5483939442
2.79260176826
2.14709322134
-2.57809858734
-2.12885314764
-1.82597089468
-3.14795779149
2.94640378493
2.61941211765
-2.47326640052
-2.39091545101
-2.63144341118
-2.27591809688
-2.53302715495
-2.56132468266
-2.44957221605
-2.56499149869
3.24298481148
4.00089060568
3.50287394994
3.47280740628
4.03241835255
3.31996593947
3.41528727468
4.28641314422
3.61911311121
-3.38915410291
-2.46217253597
-3.1494918659
-2.83699702399
2.41858647147
0.00955705464047
0.111039523808
-3.47348296196
-4.07429234344
0.150357896239
-0.0414845147066
4.55526882276
2.44623176632
4.2510912886
-0.0726919455808
-3.25120225381
-3.7956025374
-3.82848752252
-3.03891490539
-3.52319916008
-3.74743665395
-3.9969631141
-3.31666447953
-3.31362805525
-3.86843867259
-3.59545602654
3.40710915521
4.13222809839
3.48239914479
3.44207019478
3.00345368541
3.83068539195
3.45889543155
4.11257621281
-0.0256438871572
0.048137632648
4.27901782139
3.55611038064
0.5238720363
0.635532751515
3.57745952265
4.18111608023
4.53320607817
3.47182719347
3.95703548206
3.99046122736
3.50849645034
0.590250832078
0.702501111355
0.621217310722
0.617004852082
0.318979316658
0.624125426897
0.417475397857
0.498725238973
0.487715540953
0.319807266917
0.199121226221
0.360319658521
0.261357040591
0.591492814028
0.452312677261
0.449721917397
0.593648721561
0.54666069741
0.664771556417
0.50921060861
0.678050593657
0.709442935792
0.772681273641
0.642160539226
3.47255046353
4.29703458848
3.7000890303
3.81642585862
3.91378338511
4.25933757581
3.5713397184
3.43410014423
4.47633639673
-3.77322398781
-3.25181035553
0.0201279746782
-3.63788979852
-3.60555639067
-3.39346210645
1.80989107166
-0.16174790087
-3.46717338891
-4.65150637719
-3.73588439521
-3.92562237066
-4.24458350728
-4.87898635852
-3.58691226486
-4.55194098387
-4.4217784368
-3.61510747341
-1.22272251049
-0.281906320361
-3.58030305923
-1.14388711555
-0.924746861781
-3.59137701311
4.11811523563
-0.839203073001
-1.1817816709
4.70569368823
-3.37669617371
-0.996822745501
-1.11712553653
-1.03777307979
-1.16251256298
3.86137483384
-1.06097212633
-1.70970147896
-1.51483102646
2.06570994872
1.52976106222
2.26406072014
2.37887732344
1.98870973938
2.17764355162
2.34265297771
2.40611446376
2.09237891772
2.31609500352
2.22460991454
1.92516687045
1.21008850666
2.38806951301
1.95871323631
2.07793491979
1.643819587
2.10996034648
0.995434545492
1.73857470201
2.27286822374
2.32498528526
2.23963518766
2.35006862898
0.5507960193
-1.78111436741
2.42243503778
2.08830928456
-1.54115500216
-1.48571919754
4.53340347074
1.82165015639
2.11303028905
0.651771763755
0.592259818334
-2.07451633729
1.57594515656
-3.81208151268
-4.93837078499
-0.901738540203
2.25349176584
-1.61597649872
0.173830385303
-0.789792610919
-0.201357407685
-3.75773820265
5.11449878032
2.63786874668
-4.84335763998
-0.774419720352
-0.556590410645
-5.052002713
-3.65700196485
-5.038548957
-0.496945642481
-0.71596879612
-1.05457313041
-1.21524338709
-0.644230251412
-0.618738131609
-0.697337901821
-0.762583647912
-4.0732114619
-4.6025749339
-0.744127710433
-5.28622157117
-3.65240070515
-4.06690041564
-4.49228960033
3.54683267123
5.10844141326
3.73890147675
4.86181182968
-3.76097043782
-5.19891019713
3.9858215048
4.85073878026
4.84479887664
1.58362154159
-5.62960163891
-3.69713852942

SCALARS scalar2 double
LOOKUP_TABLE default
2.83445114463
5.62653897053
5.22334473849
4.81142724415
-6.12936158486
-2.36340373933
9.91451773289
9.38011798337
7.14918474515
6.45978175123
5.89137257776
5.87608714421
5.93474060448
5.60468960414
5.58409146103
5.25142833371
5.18995022765
5.29932154153
5.36575961345
5.59974254235
5.69233373014
5.80863473783
5.78797418473
5.66704245133
5.47060423279
5.3405976928
5.13940437976
5.27949399304
5.57174179258
5.49354152967
7.01842550673
4.27960594965
7.1769016329
5.69126317432
5.87111147647
5.49759252888
5.19145891972
5.27836808912
5.31512772694
5.53320511828
5.68909930468
5.79143172274
5.78776816171
5.64146320679
5.44426978698
5.54407019792
5.08964362745
5.38243319795
5.54223097211
5.44064428826
5.50898495664
5.40407230731
5.87209566285
5.04293425237
3.60672978993
1.33792906174
-0.969642392044
-3.1774708057
-6.17170767557
-6.00254922426
-5.35463372762
-5.10760696942
-5.49230380597
-5.33277485553
-5.98144142777
-5.86952063144
-5.71375005077
-5.84178215216
-5.55049350528
-5.24073693443
-5.48642929035
-5.43804641338
-5.22773737702
-5.78116660461
-5.93513266102
-5.66353864895
-5.89338574862
-7.19369982054
-4.65538846793
-5.5351434224
-5.44744212784
-5.50844384424
-5.71447062168
-4.84627294948
-7.2051580768
-5.8804436303
-5.52282944618
-5.83713582203
-5.70315496707
-5.20004681547
-5.34334609608
-5.46901438832
-5.39831484054
-5.75426640226
-5.97400239536
-5.70435294911
-6.09176206645
-6.21629081505
-5.73253442967
-5.97492613909
-6.57617004159
-6.22033069552
-6.66777710042
-6.67598553063
-7.58072263094
-9.90848218305
-11.2149703897
3.23752644532
0.0598484316741
-0.00841140366474
-2.02958770497
0.0309561475583
0.502710341832
0.797878284562
0.608789863635
0.861043705037
0.80600725584
1.20373761943
0.965772362839
1.11374274818
1.09491710009
1.02106129212
1.09106060791
1.13622205597
0.250990491996
0.355362724455
0.13721818144
2.26645915709
-0.535807033815
-1.65123188611
-1.48054069722
-1.76566892811
-1.60503411668
-1.35510414482
-1.59965206557
-1.25267220594
-1.29778085663
-1.59391301462
1.91531618473
1.19490018188
-1.22969396558
-1.47368170945
2.23815459642
1.61178360636
-0.20172700493
-1.6086419757
2.36972328318
2.26790880714
2.16996060406
2.188688442
2.13753187447
2.12534713382
2.42120215479
2.40590639098
2.12868444395
1.13621791354
-2.32203725084
-2.17837231416
-2.05721534392
1.8976271259
2.11278617582
1.4789612262
2.5483939442
2.79260176826
2.14709322134
-2.57809858734
-2.12885314764
-1.82597089468
-3.14795779149
2.94640378493
2.61941211765
-2.47326640052
-2.39091545101
-2.63144341118
-2.27591809688
-2.53302715495
-2.56132468266
-2.44957221605
-2.56499149869
3.24298481148
4.00089060568
3.50287394994
3.47280740628
4.03241835255
3.31996593947
3.41528727468
4.28641314422
3.61911311121
-3.38915410291
-2.46217253597
-3.1494918659
-2.83699702399
2.41858647147
0.00955705464047
0.111039523808
-3.47348296196
-4.07429234344
0.150357896239
-0.0414845147066
4.55526882276
2.44623176632
4.2510912886
-0.0726919455808
-3.25120225381
-3.7956025374
-3.82848752252
-3.03891490539
-3.52319916008
-3.74743665395
-3.9969631141
-3.31666447953
-3.31362805525
-3.86843867259
-3.59545602654
3.40710915521
4.13222809839
3.48239914479
3.44207019478
3.00345368541
3.83068539195
3.45889543155
4.11257621281
-0.0256438871572
0.048137632648