# vtk DataFile Version 2.0
2D Simulation Python
ASCII
DATASET UNSTRUCTURED_GRID
FIELD FieldData 1
NODES 1 2 int
386 659

POINTS 386 double
0.0 1.0 0.0
1.725 0.9617718105909085 0.0
8.275 1.0382281894090915 0.0
10.0 1.0 0.0
10.0 -6.156715217258998e-17 0.0
0.0 0.0 0.0
0.1916666666663293 1.0284751644347423 0.0
0.3833333333324708 1.046934257472002 0.0
0.574999999998553 1.0488843370177567 0.0
0.7666666666645966 1.0336394672276223 0.0
0.9583333333312576 1.0065619948093718 0.0
1.149999999998384 0.9771763563163223 0.0
1.341666666665662 0.9558188802316607 0.0
1.533333333332819 0.9500020079963035 0.0
1.92348484848444 0.9880313539638408 0.0
2.121969696968978 1.018795759981857 0.0
2.320454545453434 1.0424856550842423 0.0
2.518939393937826 1.0501844313948985 0.0
2.717424242422235 1.038994356813662 0.0
2.915909090906411 1.0131272485189011 0.0
3.1143939393908 0.9823191927429534 0.0
3.312878787875129 0.958165992320431 0.0
3.511363636359531 0.9497586379960986 0.0
3.709848484843827 0.9602615625992937 0.0
3.90833333332816 0.9857215844112186 0.0
4.106818181812215 1.0165558399352788 0.0
4.305303030296804 1.0411586650489124 0.0
4.503787878781365 1.0502698353721969 0.0
4.702272727265711 1.0404600097149914 0.0
4.900757575750005 1.0154214952125051 0.0
5.099242424235156 0.9845785047897259 0.0
5.297727272720327 0.9595399902863169 0.0
5.496212121205663 0.9497301646278283 0.0
5.694696969690998 0.9588413349499818 0.0
5.89318181817668 0.9834441600630663 0.0
6.09166666666213 1.0142784155873106 0.0
6.290151515147423 1.0397384373998602 0.0
6.488636363633031 1.0502413620038602 0.0
6.687121212118713 1.0418340076801087 0.0
6.885606060604342 1.0176808072577646 0.0
7.084090909089381 0.9868727514817407 0.0
7.282575757574369 0.9610056431866771 0.0
7.481060606059355 0.9498155686051267 0.0
7.679545454544343 0.9575143449155703 0.0
7.878030303029329 0.9812042400178944 0.0
8.076515151514705 1.011968646036028 0.0
8.46666666666447 1.0499979920036522 0.0
8.658333333329285 1.04418111976872 0.0
8.84999999999549 1.0228236436845408 0.0
9.041666666661694 0.9934380051917319 0.0
9.233333333327899 0.9663605327732583 0.0
9.42499999999549 0.9511156629824611 0.0
9.616666666663775 0.9530657425277855 0.0
9.808333333331985 0.9715248355650378 0.0
10.0 0.7999999999999998 0.0
10.0 0.6000000000013869 0.0
10.0 0.4000000000016644 0.0
10.0 0.2000000000008322 0.0
9.799999999999999 -0.029549960117391243 0.0
9.6 -0.04781283983614255 0.0
9.399999999999999 -0.04781283983614245 0.0
9.2 -0.02954996011739085 0.0
8.999999999999998 4.1262439258832e-16 0.0
8.799999999999997 0.029549960117391496 0.0
8.599999999999998 0.04781283983614265 0.0
8.399999999999997 0.04781283983614236 0.0
8.199999999999998 0.029549960117390722 0.0
7.999999999999997 -4.064676773710609e-16 0.0
7.799999999999997 -0.029549960117391496 0.0
7.599999999999998 -0.04781283983614265 0.0
7.399999999999997 -0.04781283983614236 0.0
7.199999999999998 -0.029549960117390868 0.0
6.999999999999997 4.00310962153802e-16 0.0
6.799999999999997 0.029549960117391506 0.0
6.599999999999998 0.04781283983614265 0.0
6.399999999999997 0.04781283983614233 0.0
6.199999999999998 0.029549960117390854 0.0
5.999999999999997 -3.94154246936543e-16 0.0
5.799999999999998 -0.029549960117391364 0.0
5.599999999999998 -0.04781283983614265 0.0
5.399999999999999 -0.0478128398361425 0.0
5.199999999999998 -0.029549960117390854 0.0
4.999999999999999 2.0939055390278957e-16 0.0
4.799999999999999 0.02954996011739118 0.0
4.599999999999999 0.04781283983614262 0.0
4.399999999999999 0.047812839836142436 0.0
4.199999999999999 0.029549960117390948 0.0
3.999999999999999 -2.0323383868553044e-16 0.0
3.799999999999999 -0.029549960117391184 0.0
3.599999999999999 -0.04781283983614259 0.0
3.399999999999998 -0.047812839836142436 0.0
3.199999999999998 -0.02954996011739073 0.0
2.999999999999999 1.970771234682715e-16 0.0
2.799999999999998 0.029549960117391267 0.0
2.599999999999998 0.04781283983614266 0.0
2.399999999999999 0.047812839836142484 0.0
2.199999999999999 0.029549960117390875 0.0
1.999999999999998 -3.248756416133832e-16 0.0
1.799999999999999 -0.029549960117391208 0.0
1.6 -0.04781283983614252 0.0
1.4 -0.04781283983614252 0.0
1.199999999999999 -0.029549960117390903 0.0
0.9999999999999982 2.9639305416906255e-16 0.0
0.7999999999999989 0.029549960117391208 0.0
0.6000000000000014 0.047812839836142464 0.0
0.3999999999999986 0.047812839836142464 0.0
0.1999999999999993 0.02954996011739094 0.0
0.0 0.1999999999995579 0.0
0.0 0.3999999999989749 0.0
0.0 0.5999999999989468 0.0
0.0 0.7999999999994734 0.0
0.6588466709444458 0.5526711866675614 0.0
9.341152800572154 0.539267151728801 0.0
8.741432846003065 0.5729801960927706 0.0
1.258564195672701 0.561943394012159 0.0
8.162841452481086 0.5765610784187529 0.0
1.8371433470811074 0.5690458611856117 0.0
2.4304413584300364 0.6075058566952662 0.0
7.569477445310233 0.5881039782438275 0.0
3.0304922444398223 0.6015566052581577 0.0
6.969026186276411 0.6008883642520231 0.0
3.6286638972530074 0.5919566874251101 0.0
6.367982670781885 0.5996510678241795 0.0
4.2294007706144345 0.5973945364854841 0.0
5.795134236054838 0.5219215841053596 0.0
4.802478518248147 0.5327563862393865 0.0
5.298820266644723 0.5110841145169485 0.0
9.677454509914417 0.6893388813054104 0.0
0.3225453486685887 0.7116749956070695 0.0
4.530525394011653 0.350334524375341 0.0
3.9188227613766893 0.37021984067255836 0.0
6.067964737775635 0.3385334076420573 0.0
3.3194115840985443 0.3671345315803793 0.0
6.679655354786783 0.38134728300048376 0.0
7.878986046420166 0.36265724112957615 0.0
2.120982396644119 0.37220586525156085 0.0
2.72011029289665 0.38366439060145374 0.0
7.279714264809522 0.366780922391211 0.0
9.037270243214675 0.6711693798237591 0.0
0.9627286478375565 0.673910985471447 0.0
1.5320838456331418 0.34965152579946346 0.0
8.467910222514483 0.37103940055589113 0.0
8.458294144841874 0.6915741399027644 0.0
1.5417001659514684 0.668429074543012 0.0
0.9793998658981726 0.365688758722561 0.0
9.02059889356369 0.364958765304062 0.0
4.5271997743796115 0.7035455418100652 0.0
3.921402595900251 0.6982405925064872 0.0
6.0696856609257255 0.693205224828541 0.0
2.118376997894981 0.6969052793889533 0.0
7.881594501723919 0.6869194352459939 0.0
3.32336115152713 0.6940435249848048 0.0
6.675556618991359 0.7122871799980054 0.0
2.725371162351804 0.7141854095168437 0.0
7.274462757104317 0.6933357186120531 0.0
0.33283957762417155 0.31445710094763796 0.0
9.667160268021124 0.29280798432216626 0.0
5.581324220160363 0.3070195737203645 0.0
5.017220607050322 0.3204011180114498 0.0
5.509457727707279 0.6790805483764809 0.0
5.0873921217459435 0.6890352984239178 0.0
0.6619005084309624 0.7480425182192376 0.0
9.338099095579194 0.7230649234158102 0.0
8.74762431256224 0.7502355699437494 0.0
1.252373517437174 0.7298603378361472 0.0
8.670387986864935 0.28812810626627877 0.0
1.329609117989544 0.2640738201409279 0.0
0.6804015928802377 0.24978108176709382 0.0
9.319598014357668 0.22406836358061555 0.0
8.169907998744497 0.752215039183929 0.0
1.8300810418758287 0.7375645990513654 0.0
8.08224161894768 0.28164766376701617 0.0
1.917743129757318 0.27462853110011365 0.0
7.485180593586322 0.2711856076112278 0.0
2.5147355660331927 0.299955028294384 0.0
6.885160964599665 0.2907705898865929 0.0
3.114404866649479 0.2829288818577906 0.0
6.284935232004254 0.2815059608610147 0.0
3.7137890427527522 0.27527566808033055 0.0
2.4224493077132663 0.8346929973122533 0.0
7.577503965097894 0.7894294950368825 0.0
3.0216051097921865 0.8137401745707706 0.0
6.978106161292107 0.8150131539378014 0.0
3.6184596483553686 0.7924598743362812 0.0
6.379474969507795 0.8314249293346004 0.0
4.216884896410105 0.8240689700079429 0.0
5.793598400329201 0.8270833674453032 0.0
4.802574981998306 0.8581926203232583 0.0
5.299579324155319 0.16457369323892235 0.0
4.313878967413123 0.2834481604463165 0.0
4.743204933432506 0.2510969461633216 0.0
5.855724986354711 0.22656176313380202 0.0
5.298372066360231 0.7020889709015024 0.0
0.19483726742284613 0.5068254733908197 0.0
9.805162635944233 0.4974416761977148 0.0
9.486963243585048 0.13842575113199812 0.0
0.5130365841200208 0.18625904306326135 0.0
9.568925521876286 0.504606140883515 0.0
0.43107421424193937 0.5198135495078163 0.0
9.509138636364952 0.8121000918565557 0.0
0.4908612048194054 0.860603210413928 0.0
9.823684716845825 0.8156634770991816 0.0
0.17631523659576437 0.8398156850296444 0.0
7.690675622744804 0.1735078336169379 0.0
2.3092909747218746 0.21192196180582407 0.0
8.87666373626261 0.2000573940077732 0.0
1.1233350721887787 0.18356561052724082 0.0
7.090880439660048 0.18836416206145498 0.0
2.908943046910333 0.20202338203765813 0.0
6.4910762521270895 0.21262535427873835 0.0
3.5085323257714025 0.17241056420003736 0.0
1.7133214015672256 0.1700404815381133 0.0
8.286672453626597 0.20623532912224055 0.0
4.1081227283907955 0.1978592842875152 0.0
8.577560103028611 0.8514221433220815 0.0
1.4224373942683917 0.80574705156402 0.0
8.923332977662511 0.831425676394321 0.0
1.0766660694736707 0.8211741323262078 0.0
0.8418681013991742 0.8356968389554373 0.0
9.15813141750889 0.8141224229440089 0.0
8.345850372982424 0.8507298035735334 0.0
1.6541447886079088 0.8087027327110266 0.0
5.592449090571182 0.4946345671331199 0.0
5.005265140140692 0.503593847174041 0.0
7.789405109218287 0.8233895028763644 0.0
2.2105728164910725 0.855401801490479 0.0
7.776865079127953 0.5462498119218842 0.0
2.2230886708441897 0.5577118357064842 0.0
2.8152765733114413 0.859016541691869 0.0
7.184590603097542 0.8300047553413489 0.0
3.4120552044200867 0.8203610277175792 0.0
6.5870348178637075 0.8669876977085899 0.0
4.009202334377716 0.8429736653119196 0.0
5.984832284217686 0.8422725508078814 0.0
4.611344717283959 0.8678955599551519 0.0
7.175166164987749 0.5550957295849087 0.0
2.824567021683326 0.5651047424715736 0.0
6.575204017070679 0.5628201226735063 0.0
3.423088905171735 0.5527626958499775 0.0
5.978030920683477 0.5300629806027356 0.0
4.022408005140655 0.5557209994332439 0.0
4.619575537025379 0.5394812630080872 0.0
8.548997316472706 0.5480667765259808 0.0
[...]
POINT_DATA 386
VECTORS vector double
1.0 0.0 0.0
0.0 0.0 0.0
0.0 0.0 0.0
0.0 0.0 0.0
0.0 0.0 0.0
1.0 0.0 0.0
0.0 0.0 0.0
0.0 0.0 0.0
0.0 0.0 0.0
0.0 0.0 0.0
0.0 0.0 0.0
0.0 0.0 0.0
0.0 0.0 0.0
0.0 0.0 0.0
0.0 0.0 0.0
0.0 0.0 0.0
0.0 0.0 0.0
0.0 0.0 0.0
0.0 0.0 0.0
0.0 0.0 0.0
0.0 0.0 0.0
0.0 0.0 0.0
0.0 0.0 0.0
0.0 0.0 0.0
0.0 0.0 0.0
0.0 0.0 0.0
0.0 0.0 0.0
0.0 0.0 0.0
0.0 0.0 0.0
0.0 0.0 0.0
0.0 0.0 0.0
0.0 0.0 0.0
0.0 0.0 0.0
0.0 0.0 0.0
0.0 0.0 0.0
0.0 0.0 0.0
0.0 0.0 0.0
0.0 0.0 0.0
0.0 0.0 0.0
0.0 0.0 0.0
0.0 0.0 0.0
0.0 0.0 0.0
0.0 0.0 0.0
0.0 0.0 0.0
0.0 0.0 0.0
0.0 0.0 0.0
0.0 0.0 0.0
0.0 0.0 0.0
0.0 0.0 0.0
0.0 0.0 0.0
0.0 0.0 0.0
0.0 0.0 0.0
0.0 0.0 0.0
0.0 0.0 0.0
0.89098973649 0.0949189524321 0.0
1.40232900937 0.000673799043247 0.0
1.42542141073 -0.00596138098959 0.0
1.0270756168 -0.0840545562871 0.0
0.0 0.0 0.0
0.0 0.0 0.0
0.0 0.0 0.0
0.0 0.0 0.0
0.0 0.0 0.0
0.0 0.0 0.0
0.0 0.0 0.0
0.0 0.0 0.0
0.0 0.0 0.0
0.0 0.0 0.0
0.0 0.0 0.0
0.0 0.0 0.0
0.0 0.0 0.0
0.0 0.0 0.0
0.0 0.0 0.0
0.0 0.0 0.0
0.0 0.0 0.0
0.0 0.0 0.0
0.0 0.0 0.0
0.0 0.0 0.0
0.0 0.0 0.0
0.0 0.0 0.0
0.0 0.0 0.0
0.0 0.0 0.0
0.0 0.0 0.0
0.0 0.0 0.0
0.0 0.0 0.0
0.0 0.0 0.0
0.0 0.0 0.0
0.0 0.0 0.0
0.0 0.0 0.0
0.0 0.0 0.0
0.0 0.0 0.0
0.0 0.0 0.0
0.0 0.0 0.0
0.0 0.0 0.0
0.0 0.0 0.0
0.0 0.0 0.0
0.0 0.0 0.0
0.0 0.0 0.0
0.0 0.0 0.0
0.0 0.0 0.0
0.0 0.0 0.0
0.0 0.0 0.0
0.0 0.0 0.0
0.0 0.0 0.0
0.0 0.0 0.0
0.0 0.0 0.0
0.0 0.0 0.0
1.0 0.0 0.0
1.0 0.0 0.0
1.0 0.0 0.0
1.0 0.0 0.0
1.23957808122 -0.0550941093787 0.0
1.4686775361 -0.0392039279306 0.0
1.43804778344 -0.0169306203914 0.0
1.3616913712 -0.0350861353762 0.0
1.43795631878 0.0341609457392 0.0
1.41443849212 0.0312246781562 0.0
1.38700128165 0.0184849628031 0.0
1.43122776613 0.000405256377656 0.0
1.40847562168 -0.0336057036939 0.0
1.41098647094 -0.028206933662 0.0
1.42795113123 -0.000168176483072 0.0
1.40465951381 0.0202724570311 0.0
1.40965407121 0.0261954496005 0.0
1.46196873785 0.0243539907202 0.0
1.45944236707 -0.025683793939 0.0
1.50118815898 -0.0225116592107 0.0
1.27814063953 0.00260099059943 0.0
1.11317343905 -0.101485531434 0.0
1.35053113489 0.0114795072707 0.0
1.36476745833 0.0300481587145 0.0
1.31856424948 0.0268576331909 0.0
1.37256308065 -0.0240516253019 0.0
1.37827376092 -0.00913117521442 0.0
1.36681169263 0.0290901635056 0.0
1.37077396572 0.050131929473 0.0
1.39325609527 -0.0129758825641 0.0
1.36265779029 -0.0319980258894 0.0
1.32068842765 -0.0480793335623 0.0
1.2480948508 -0.0681107915952 0.0
1.35307880239 0.026725300534 0.0
1.37458420318 0.0120500294545 0.0
1.29700337431 0.0125986641234 0.0
1.2824227567 0.00236047596325 0.0
1.34516787837 -0.0197757954586 0.0
1.37693015259 -0.0486131085438 0.0
1.23801263302 -0.00130433428948 0.0
1.24643460608 0.0322956430792 0.0
1.26598080863 0.0429881776198 0.0
1.24360890912 0.0488286880721 0.0
1.28502822859 0.0266571766302 0.0
1.26634307334 -0.0267321614901 0.0
1.21742265111 -0.012123597957 0.0
1.20844013972 -0.0148568921404 0.0
1.26637012907 -0.0338785681674 0.0
1.16628633757 0.098018845785 0.0
1.28021770484 -0.0181537884071 0.0
1.25740456177 0.00641560058093 0.0
1.28443917279 -0.0409023856505 0.0
1.27969778844 0.0241781137596 0.0
1.24543342531 -0.0575871125231 0.0
1.14768374502 -0.0833315841717 0.0
1.21723441165 -0.0378094554393 0.0
1.15336128517 -0.0213383797653 0.0
1.16512046166 -0.0489587875279 0.0
1.22030492175 -0.0114474767116 0.0
1.2028353053 -0.00984160340677 0.0
1.2325283928 0.00418699465039 0.0
1.09347756833 -0.0389176494267 0.0
1.14840200243 0.0353485362429 0.0
1.16027506328 0.0326519272969 0.0
1.19726192284 0.0490418609234 0.0
1.21791438899 0.0353901093615 0.0
1.17850459267 0.00279594291317 0.0
1.25078992542 0.00798784268776 0.0
1.22504478871 -0.0263743150848 0.0
1.19853572454 -0.0471459139475 0.0
1.20287010387 0.0352383974167 0.0
1.19391685991 6.22434030812e-05 0.0
0.804763036517 0.0139748349694 0.0
1.07216717233 0.0129132466126 0.0
0.938557894512 -0.0560896499752 0.0
0.92900348787 -0.053873115554 0.0
1.05779817808 0.0179771255215 0.0
0.818648451307 0.0221378504418 0.0
0.844804468978 0.0370739790387 0.0
0.903692522546 0.0464960264874 0.0
0.742319393364 -0.0348888037951 0.0
0.832932669021 -0.0273176633255 0.0
1.22335360756 0.0289986761592 0.0
1.07048997664 -0.0436684851031 0.0
0.94899347919 0.0411525940698 0.0
1.19965629464 -0.0277060756964 0.0
1.01585867542 0.0057187794922 0.0
1.47615499512 -0.0110249355391 0.0
0.736658777481 -0.011375070663 0.0
1.22500028861 0.0552726678117 0.0
1.48476341675 -0.0232764211268 0.0
1.13834988989 -0.0206974519695 0.0
0.938225218649 -0.0146142190918 0.0
0.910947083971 -0.0777629353089 0.0
0.820189955081 -0.0481945777782 0.0
1.07680337062 -0.110969087026 0.0
0.852958465214 0.0115522289574 0.0
1.07592624362 0.0561193433547 0.0
0.964261776904 -0.0580365563874 0.0
0.990569803185 -0.0253669685337 0.0
0.902154988851 -0.0566118261901 0.0
0.980470746784 -0.0387418691054 0.0
1.07130934459 0.000382545871173 0.0
0.837485970552 0.00121955345633 0.0
0.888000863069 0.0421138054615 0.0
1.03864729479 0.0340672723285 0.0
0.988961713986 0.0647383526994 0.0
0.732651109854 -0.00909305826952 0.0
0.997008861799 -0.0166054053263 0.0
0.842459190143 -0.0397097196612 0.0
0.922253145034 -0.0873311026457 0.0
0.881729769869 -0.0695830351459 0.0
0.928149865316 -0.0692710327726 0.0
0.729100291567 0.034255631738 0.0
0.970916256609 0.0128680350589 0.0
1.4668586523 -0.0079125970721 0.0
1.47119731855 -0.0223301665376 0.0
0.899068914527 0.0362482920454 0.0
0.707984106631 0.0375815010028 0.0
1.49137273008 0.0213220362841 0.0
1.45814413688 0.0328007202309 0.0
0.736166927076 -0.0359464739098 0.0
0.896494959672 -0.0507062702927 0.0
0.962850495799 -0.0268300611151 0.0
0.681106731043 -0.000100117997961 0.0
0.778710536719 0.0431258786826 0.0
0.815516719998 0.0528748210802 0.0
0.697138895396 -0.0154274411932 0.0
1.48484257037 -0.030866575425 0.0
1.46861362437 -0.0329037442492 0.0
1.47013222561 0.0144997947203 0.0
1.49196653478 -0.0218016693885 0.0
1.47480241788 0.0354215572862 0.0
1.47959819555 0.0239286657786 0.0
1.47647493575 -0.0105075166056 0.0
1.47541882217 -0.00109384164025 0.0
1.42000211347 0.000225248427973 0.0
1.35214361847 -0.0452774254728 0.0
1.31789296725 -0.0490573254934 0.0
1.48743569938 -0.0366713945527 0.0
1.48512071547 -0.053137275486 0.0
1.46154589421 0.0185073380383 0.0
1.4484849874 0.020847925653 0.0
1.49145574195 0.0232747704454 0.0
1.45107885572 0.0490165109056 0.0
1.47419891409 0.0277942924833 0.0
1.46856863888 0.0294192691994 0.0
1.45512754357 0.031005609684 0.0
1.46535862951 -0.0221372934742 0.0
1.45476446049 -0.0308490276682 0.0
1.44237443134 0.0135284108618 0.0
1.47273738385 -0.0300489371604 0.0
0.675904458266 0.0100268678398 0.0
0.875647197909 0.047430348386 0.0
0.724175267 0.0393261925656 0.0
0.819417642776 0.0677571426981 0.0
0.830420372439 0.0335665541211 0.0
0.905376344034 -0.0482385611775 0.0
0.728994623388 -0.0313849969742 0.0
0.679235800988 -0.00538777218653 0.0
0.961264006201 -0.0333302784042 0.0
0.947003925741 -0.0129754933813 0.0
0.803268763736 -0.0336965733417 0.0
1.19318594913 0.260141750529 0.0
0.829934451422 0.0145492852431 0.0
0.854104981588 -0.0389418234366 0.0
1.08337050469 -0.055290909501 0.0
1.34925559969 -0.0378225594786 0.0
1.19023620024 -0.103711459594 0.0
0.765730623719 0.00156208987327 0.0
0.973959401405 0.0109978018744 0.0
0.803164041906 0.0524582804014 0.0
0.91205106 0.0550216824451 0.0
0.851922779594 0.0808311776629 0.0
0.942129733916 -0.00142369362304 0.0
0.734348036789 -0.0173806827094 0.0
0.966083534641 -0.0341582228767 0.0
0.9483959355 -0.0258761279005 0.0
0.737940153953 -0.0360534246611 0.0
1.41350469801 -0.0241944994597 0.0
1.35991656396 -0.00984408284941 0.0
0.81015767143 0.0341479719015 0.0
1.42060201275 0.035136401984 0.0
1.39442072933 0.0307668419799 0.0
0.845215903694 -0.0511462671894 0.0
0.939910287597 0.0465151979392 0.0
1.43976428718 0.0258934709349 0.0
1.41008179451 0.0115379764551 0.0
0.967833243003 0.0131621321824 0.0
0.76811045 -0.0030466521986 0.0
1.43132676411 -0.0319212715199 0.0
1.42484469271 -0.0270160678743 0.0
1.4330730964 0.0253772884978 0.0
1.41546120123 -0.0124576895391 0.0
0.820731731409 -0.0383279140471 0.0
1.42992911158 0.0230510989056 0.0
1.3476164838 0.0490384357029 0.0
1.37639894713 -0.0548272388332 0.0
1.27366444801 0.00690029149543 0.0
1.27862362461 -0.0333443955994 0.0
1.25352608801 -0.0173589443526 0.0
1.26413155788 0.0436241405181 0.0
1.28675448373 0.0320577059031 0.0
1.27900818975 0.00844069452366 0.0
1.2366945541 0.0392981779196 0.0
1.24792244757 0.00500087374017 0.0
1.28281880972 -0.00632022752825 0.0
1.23706314411 -0.0266218950751 0.0
1.27510626014 -0.0458623453799 0.0
1.29262319563 -0.0362870183573 0.0
1.2516853747 -0.0479830462717 0.0
1.25306894951 0.0179766567815 0.0
1.272333822 0.0263700261083 0.0
1.29005940076 0.0392096718945 0.0
1.29057580325 0.0235943630377 0.0
1.27606793372 0.0192973057674 0.0
1.21942343861 -0.0791585139609 0.0
1.33319090394 -0.0306912413476 0.0
1.26678137121 0.0126163215211 0.0
1.27238138772 0.0383474041569 0.0
1.27264369261 -0.0458922878688 0.0
1.24226212508 -0.0218247346323 0.0
1.26285613622 0.0381875227644 0.0
1.35208135582 -0.0254049103097 0.0
1.22854180874 -0.00154153679597 0.0
1.28379038987 -0.0115281777062 0.0
1.35133659248 -0.0253981269356 0.0
1.36069353944 -0.020091160252 0.0
1.0078272054 -0.135357824141 0.0
1.31892639168 0.00557618263493 0.0
1.28706591556 -0.0195735170139 0.0
1.48106059415 -0.0358739416925 0.0
1.48512767175 -0.00912425790607 0.0
1.30999844383 -0.00131113940279 0.0
1.04509870125 0.102570823066 0.0
0.621817620022 -0.00659022315462 0.0
1.25512307741 0.174010746735 0.0
1.03366791281 -0.0720148015342 0.0
1.30149437518 -0.0021860327296 0.0
1.36113331625 -0.0345233018881 0.0
1.29872819711 -0.0018056536371 0.0
1.46721953073 -0.0158805391441 0.0
1.38805288233 0.0175943308848 0.0
0.811240921804 0.135195190023 0.0
0.792378105974 0.0591291218991 0.0
0.980276387816 -0.100149387544 0.0
0.970248358047 -0.10098622338 0.0
1.45831979494 0.0228387735743 0.0
1.43283838957 0.0557863786579 0.0
0.792588452423 0.059987167658 0.0
0.570214398824 0.0216132697966 0.0
0.79680622561 0.0228516364054 0.0
1.47824349754 0.0243915376732 0.0
1.45256702943 -0.0265864889237 0.0
1.45422547587 -0.025923683738 0.0
1.42873904152 0.0382919758941 0.0
1.46432064922 -0.0183387488678 0.0
1.47035587386 -0.0359908485596 0.0
1.45547261287 0.0236943852037 0.0
1.47176334384 0.0305125095851 0.0
0.620271081497 -0.0262745908189 0.0
0.704132683348 -0.052551179833 0.0
1.47714856966 0.0272479752313 0.0
0.86305699716 0.0145171933463 0.0
0.539965773239 -0.0149313287203 0.0
0.662531451363 0.0528884347466 0.0
0.728211438383 0.044346878667 0.0
0.66993876158 -0.041414175793 0.0
0.794226308863 -0.0547314425544 0.0
0.569481738808 -0.0181148766845 0.0
0.808062701415 -0.0617998647394 0.0
0.645559599437 0.0173642179745 0.0
0.79479786369 -0.0469448417114 0.0
0.555521802067 0.0371018052439 0.0
0.71944307923 0.0380223493734 0.0
0.517646956897 0.0728577351842 0.0
1.08415136823 0.0704909297185 0.0
0.953481921194 -0.0435955886221 0.0
0.495153154516 0.00667813944548 0.0

SCALARS scalar1 double
LOOKUP_TABLE default
4.3589353154
7.56325168446
3.83453596311
4.6198964955
-5.91881785602
-2.39750003445
8.09793189047
6.92269566866
5.09745364543
5.01798688894
5.78264395438
7.24513681101
8.55044193031
7.93041267552
6.19725333142
4.60004104627
3.90221952992
3.81564934708
4.05266802036
5.21014870751
6.49040974982
8.08058844452
8.20416029061
7.36029415419
5.94581454737
4.66767753817
3.88232182094
3.69159224216
4.26479584938
4.9352419996
7.53178929339
5.90701072421
10.0991236
7.62704819833
6.56103860087
4.89703051314
3.9778727017
3.80804346334
3.92312304019
4.9529350852
6.22389773102
7.82227230249
8.17647256083
7.45076375082
6.08188152056
4.82271362739
3.61627721335
3.83301770318
4.59209278142
5.72416391221
7.43510488679
8.22318050424
8.5191571258
6.67501502684
3.67415783052
1.34912356177
-0.967742478621
-3.1579764883
-4.73274828528
-4.2276403447
-3.56703754416
-3.85060361014
-5.44880608034
-6.72354291671
-8.80068762262
-8.01111781794
-7.08753141557
-5.99837270164
-4.70784142389
-3.73730109432
-3.80802083534
-4.54083797093
-5.23672765579
-7.09847715257
-7.93064653467
-8.1670614483
-7.84531797575
-7.67958257125
-3.87843242863
-4.14495953508
-4.11600246114
-4.62025753453
-5.58499386473
-5.97136596053
-10.2225442375
-8.76015251626
-7.03974105928
-5.83573796438
-4.51703465581
-3.75144551998
-4.04709263653
-4.389519113
-5.25048040149
-6.87489013426
-8.73008352758
-8.16243594342
-7.28050500572
-6.13835239976
-4.71387041542
-4.48147090117
-4.54631142062
-4.85851854384
-6.60228930612
-8.52362071209
-11.1238881464
-13.8031461316
-13.9451231366
3.4171971926
0.0584197595934
-0.0385032098357
-1.94168180774
0.081628257588
0.540181271445
0.784148492147
0.629350719808
0.833856015519
0.811031962082
1.12266381797
1.06721010054
1.13562871861
1.09858759693
1.11553222128
1.01100717508
1.0703822484
0.269087334268
0.374146096597
0.201225672508
2.40906916037
-0.689393194444
-1.82323154366
-1.44343672496
-1.75525439902
-1.50174350314
-1.50104492169
-1.51979348289
-1.30446639834
-1.4275130189
-1.51976030786
1.90299156149
1.10840345114
-1.08766252278
-1.61158462264
2.09224810448
1.79664519497
-0.203863420389
-1.62001486666
2.20597966044
2.42556760503
2.1756735637
2.18848981862
2.30299962019
2.22223460597
2.23601340007
2.22744979073
2.20534513437
1.02766388234
-2.19659175557
-2.07758908798
-2.05402287589
2.00645261888
2.14008873453
1.4215258274
2.60050449175
2.70709134956
2.16316981201
-2.63354350661
-2.09973434771
-1.70359012406
-3.13027830433
2.93080417922
2.67349097136
-2.48906150997
-2.30788825971
-2.53112618304
-2.35330857701
-2.57683624757
-2.58426612952
-2.52143497032
-2.45329216696
3.82171778661
3.22929315546
3.43481499781
3.48434636228
3.2743051144
3.88785888129
3.82946025233
3.7220982135
3.9787493553
-3.84820766512
-2.50348135889
-2.9158578459
-2.98440856746
2.18771916724
0.0239074263396
0.0988165745266
-4.12014280523
-2.50301568934
0.165817322351
0.0143506107274
3.57810866984
3.61990837825
3.85507328628
-0.0436564820849
-3.68190752909
-3.20030430346
-3.57332771457
-3.37656238009
-3.69197224664
-3.59387050876
-3.25800319506
-3.82273883665
-3.77711392166
-3.30485900814
-3.34803793693
3.95088847207
3.21456817735
3.63968274947
3.20201650298
3.33887730009
3.44982065239
4.03442542615
3.32607032972
0.013551297916
0.0612589609605
3.74379234461
3.98097318755
0.558297861683
0.628011901028
3.94242723853
3.68081633675
3.59132537964
4.03161035977
3.99581928911
4.02848021144
4.07126713268
0.616714961443
0.708383396229
0.59730634394
0.633199046387
0.297037620405
0.617707760641
0.406899166857
0.486168755416
0.491802877709
0.338034609435
0.224254735327
0.361896157503
0.290966920287
0.553393137983
0.4409759175
0.429287053629
0.586540911313
0.533494845707
0.698351257802
0.477826309328
0.709342418338
0.71170443697
0.737361429509
0.674772953168
4.02932857863
3.8289924247
4.13495711684
3.80278797401
3.91299335691
3.66424942046
3.98476466011
3.9875109958
3.58642726318
-3.56538584588
-3.7550625043
0.223463002439
-3.9719065688
-3.86301368324
-3.07540937131
1.95164879867
-0.267963942145
-4.28053975611
-3.69933683253
-3.87530634127
-3.75927186241
-3.87906548819
-3.79495681023
-4.07514725353
-3.71745205441
-3.75415397022
-4.11744112946
-1.29076345455
-0.249060482911
-3.85578067493
-1.19550952198
-0.826580540379
-3.7671638033
3.62258848688
-0.931771842826
-1.11480326164
3.55495778732
-3.92840234996
-1.04306626091
-1.11596927281
-1.11096188471
-1.06906534743
3.85760982317
-1.09704473435
-1.58188781745
-1.57140543314
1.94428588533
1.63252734736
2.11170421054
2.42484117011
2.11914519292
2.24108646405
2.25247372872
2.33023038686
2.27036538092
2.20062395016
2.21829872958
1.85465797871
1.20551292321
2.33785576152
2.03015702343
2.153763935
1.80553730348
2.03656301864
0.861272026698
1.78798018391
2.32602847469
2.23207719375
2.2361481656
2.22272729724
0.396700332988
-1.69536598109
2.35009709485
2.24996777702
-1.41835851677
-1.43403363255
3.8204701183
2.01652679803
2.03237558826
0.702551294451
0.653862661974
-1.98520417918
1.37956171906
-4.42697172471
-3.35460821604
-1.20850713691
2.37263185988
-1.57634771755
0.0957331896833
-0.865600181248
-0.187782116615
-3.90640617366
4.23418986561
3.74976668413
-4.03916783884
-0.764424780846
-0.533769680105
-4.27121582209
-4.19337621516
-4.12904702883
-0.557634976588
-0.672034407708
-1.15745449284
-1.15370355468
-0.635242770438
-0.666501228671
-0.65224558195
-0.779569313352
-4.34719035093
-4.30266021709
-0.790153403512
-4.23131596976
-4.31558604529
-4.30773694473
-4.21169404192
4.34107972384
4.23648579209
4.23561506324
4.11256225112
-4.49378938864
-4.2444896077
4.43790498384
4.31513059143
4.67735828319
1.59900193173
-4.45034400415
-4.30145387536

SCALARS scalar2 double
LOOKUP_TABLE default
4.3589353154
7.56325168446
3.83453596311
4.6198964955
-5.91881785602
-2.39750003445
8.09793189047
6.92269566866
5.09745364543
5.01798688894
5.78264395438
7.24513681101
8.55044193031
7.93041267552
6.19725333142
4.60004104627
3.90221952992
3.81564934708
4.05266802036
5.21014870751
6.49040974982
8.08058844452
8.20416029061
7.36029415419
5.94581454737
4.66767753817
3.88232182094
3.69159224216
4.26479584938
4.9352419996
7.53178929339
5.90701072421
10.0991236
7.62704819833
6.56103860087
4.89703051314
3.9778727017
3.80804346334
3.92312304019
4.9529350852
6.22389773102
7.82227230249
8.17647256083
7.45076375082
6.08188152056
4.82271362739
3.61627721335
3.83301770318
4.59209278142
5.72416391221
7.43510488679
8.22318050424
8.5191571258
6.67501502684
3.67415783052
1.34912356177
-0.967742478621
-3.1579764883
-4.73274828528
-4.2276403447
-3.56703754416
-3.85060361014
-5.44880608034
-6.72354291671
-8.80068762262
-8.01111781794
-7.08753141557
-5.99837270164
-4.70784142389
-3.73730109432
-3.80802083534
-4.54083797093
-5.23672765579
-7.09847715257
-7.93064653467
-8.1670614483
-7.84531797575
-7.67958257125
-3.87843242863
-4.14495953508
-4.11600246114
-4.62025753453
-5.58499386473
-5.97136596053
-10.2225442375
-8.76015251626
-7.03974105928
-5.83573796438
-4.51703465581
-3.75144551998
-4.04709263653
-4.389519113
-5.25048040149
-6.87489013426
-8.73008352758
-8.16243594342
-7.28050500572
-6.13835239976
-4.71387041542
-4.48147090117
-4.54631142062
-4.85851854384
-6.60228930612
-8.52362071209
-11.1238881464
-13.8031461316
-13.9451231366
3.4171971926
0.0584197595934
-0.0385032098357
-1.94168180774
0.081628257588
0.540181271445
0.784148492147
0.629350719808
0.833856015519
0.811031962082
1.12266381797
1.06721010054
1.13562871861
1.09858759693
1.11553222128
1.01100717508
1.0703822484
0.269087334268
0.374146096597
0.201225672508
2.40906916037
-0.689393194444
-1.82323154366
-1.44343672496
-1.75525439902
-1.50174350314
-1.50104492169
-1.51979348289
-1.30446639834
-1.4275130189
-1.51976030786
1.90299156149
1.10840345114
-1.08766252278
-1.61158462264
2.09224810448
1.79664519497
-0.203863420389
-1.62001486666
2.20597966044
2.42556760503
2.1756735637
2.18848981862
2.30299962019
2.22223460597
2.23601340007
2.22744979073
2.20534513437
1.02766388234
-2.19659175557
-2.07758908798
-2.05402287589
2.00645261888
2.14008873453
1.4215258274
2.60050449175
2.70709134956
2.16316981201
-2.63354350661
-2.09973434771
-1.70359012406
-3.13027830433
2.93080417922
2.67349097136
-2.48906150997
-2.30788825971
-2.53112618304
-2.35330857701
-2.57683624757
-2.58426612952
-2.52143497032
-2.45329216696
3.82171778661
3.22929315546
3.43481499781
3.48434636228
3.2743051144
3.88785888129
3.82946025233
3.7220982135
3.9787493553
-3.84820766512
-2.50348135889
-2.9158578459
-2.98440856746
2.18771916724
0.0239074263396
0.0988165745266
-4.12014280523
-2.50301568934
0.165817322351
0.0143506107274
3.57810866984
3.61990837825
3.85507328628
-0.0436564820849
-3.68190752909
-3.20030430346
-3.57332771457
-3.37656238009
-3.69197224664
-3.59387050876
-3.25800319506
-3.82273883665
-3.77711392166
-3.30485900814
-3.34803793693
3.95088847207
3.21456817735
3.63968274947
3.20201650298
3.33887730009
3.44982065239
4.03442542615
3.32607032972
0.013551297916
0.0612589609605
3.74379234461
3.98097318755