# vtk DataFile Version 2.0
2D Simulation Python
ASCII
DATASET UNSTRUCTURED_GRID
FIELD FieldData 1
NODES 1 2 int
386 659

POINTS 386 double
0.0 1.0 0.0
1.725 0.9770838754674539 0.0
8.275 1.0229161245325455 0.0
10.0 1.0 0.0
10.0 -3.690681008203164e-17 0.0
0.0 0.0 0.0
0.1916666666663293 1.017069613401991 0.0
0.3833333333324708 1.0281350308684833 0.0
0.574999999998553 1.0293040181108712 0.0
0.7666666666645966 1.0201653866456293 0.0
0.9583333333312576 1.0039336283658185 0.0
1.149999999998384 0.9863182256594869 0.0
1.341666666665662 0.9735153545525276 0.0
1.533333333332819 0.9700283945213087 0.0
1.92348484848444 0.9928253211232296 0.0
2.121969696968978 1.0112672345482734 0.0
2.320454545453434 1.0254682886583613 0.0
2.518939393937826 1.0300833677246293 0.0
2.717424242422235 1.0233754083209572 0.0
2.915909090906411 1.0078692102994888 0.0
3.1143939393908 0.9894011307571354 0.0
3.312878787875129 0.9749223454079541 0.0
3.511363636359531 0.9698825048697624 0.0
3.709848484843827 0.9761785479699755 0.0
3.90833333332816 0.9914407154820114 0.0
4.106818181812215 1.0099245006253819 0.0
4.305303030296804 1.024672816275988 0.0
4.503787878781365 1.0301345636669332 0.0
4.702272727265711 1.0242540030158016 0.0
4.900757575750005 1.0092445106668793 0.0
5.099242424235156 0.9907554893344581 0.0
5.297727272720327 0.9757459969849812 0.0
5.496212121205663 0.9698654363330824 0.0
5.694696969690998 0.9753271837233478 0.0
5.89318181817668 0.9900754993736265 0.0
6.09166666666213 1.0085592845171065 0.0
6.290151515147423 1.023821452029517 0.0
6.488636363633031 1.0301174951302141 0.0
6.687121212118713 1.0250776545923683 0.0
6.885606060604342 1.010598869243295 0.0
7.084090909089381 0.9921307897008963 0.0
7.282575757574369 0.9766245916792458 0.0
7.481060606059355 0.969916632275385 0.0
7.679545454544343 0.9745317113415252 0.0
7.878030303029329 0.988732765451577 0.0
8.076515151514705 1.0071746788766918 0.0
8.46666666666447 1.029971605478664 0.0
8.658333333329285 1.0264846454477 0.0
8.84999999999549 1.0136817743410313 0.0
9.041666666661694 0.9960663716348431 0.0
9.233333333327899 0.9798346133548987 0.0
9.42499999999549 0.9706959818892584 0.0
9.616666666663775 0.9718649691313901 0.0
9.808333333331985 0.9829303865978772 0.0
10.0 0.7999999999999998 0.0
10.0 0.6000000000013869 0.0
10.0 0.4000000000016644 0.0
10.0 0.2000000000008322 0.0
9.799999999999999 -0.017713906320157957 0.0
9.6 -0.028661702499546977 0.0
9.399999999999999 -0.028661702499546915 0.0
9.2 -0.01771390632015773 0.0
8.999999999999998 2.473502436783274e-16 0.0
8.799999999999997 0.01771390632015811 0.0
8.599999999999998 0.028661702499547047 0.0
8.399999999999997 0.028661702499546866 0.0
8.199999999999998 0.017713906320157655 0.0
7.999999999999997 -2.4365956267012405e-16 0.0
7.799999999999997 -0.01771390632015811 0.0
7.599999999999998 -0.028661702499547047 0.0
7.399999999999997 -0.028661702499546866 0.0
7.199999999999998 -0.017713906320157735 0.0
6.999999999999997 2.39968881661921e-16 0.0
6.799999999999997 0.017713906320158124 0.0
6.599999999999998 0.028661702499547047 0.0
6.399999999999997 0.028661702499546828 0.0
6.199999999999998 0.01771390632015773 0.0
5.999999999999997 -2.3627820065371783e-16 0.0
5.799999999999998 -0.01771390632015804 0.0
5.599999999999998 -0.028661702499547047 0.0
5.399999999999999 -0.028661702499546943 0.0
5.199999999999998 -0.01771390632015773 0.0
4.999999999999999 1.255204623432654e-16 0.0
4.799999999999999 0.017713906320157912 0.0
4.599999999999999 0.028661702499547033 0.0
4.399999999999999 0.0286617024995469 0.0
4.199999999999999 0.01771390632015778 0.0
3.999999999999999 -1.2182978133506202e-16 0.0
3.799999999999999 -0.017713906320157916 0.0
3.599999999999999 -0.028661702499546988 0.0
3.399999999999998 -0.0286617024995469 0.0
3.199999999999998 -0.01771390632015765 0.0
2.999999999999999 1.1813910032685892e-16 0.0
2.799999999999998 0.017713906320157978 0.0
2.599999999999998 0.028661702499547075 0.0
2.399999999999999 0.028661702499546932 0.0
2.199999999999999 0.01771390632015774 0.0
1.999999999999998 -1.947487122953429e-16 0.0
1.799999999999999 -0.01771390632015795 0.0
1.6 -0.028661702499546946 0.0
1.4 -0.028661702499546946 0.0
1.199999999999999 -0.017713906320157742 0.0
0.9999999999999982 1.7767464912435854e-16 0.0
0.7999999999999989 0.01771390632015795 0.0
0.6000000000000014 0.028661702499546925 0.0
0.3999999999999986 0.028661702499546925 0.0
0.1999999999999993 0.017713906320157777 0.0
0.0 0.1999999999995579 0.0
0.0 0.3999999999989749 0.0
0.0 0.5999999999989468 0.0
0.0 0.7999999999994734 0.0
0.658846672176742 0.5509635798787534 0.0
9.341152799459605 0.5409747646920118 0.0
8.741432843895002 0.5718999686417156 0.0
1.2585641980437874 0.563023633543218 0.0
8.162841450093751 0.5755711054809672 0.0
1.837143349849257 0.5700358408024807 0.0
2.430441360802249 0.6041700435490983 0.0
7.5694774433884096 0.5914399478079948 0.0
3.030492246439906 0.6016285944198226 0.0
6.9690261848407715 0.6008146751338325 0.0
3.6286638988502298 0.595256746461004 0.0
6.367982669868484 0.5963216177644178 0.0
4.229400771727519 0.5953574994108525 0.0
5.795134235635273 0.5234268665404264 0.0
4.80247851888616 0.531619405193184 0.0
5.298820266747532 0.5138340703563975 0.0
9.677454509477325 0.6947208843039688 0.0
0.322545349150631 0.7062929950302291 0.0
4.530525394780393 0.34500139396852775 0.0
3.918822762643288 0.37091989640199907 0.0
6.06796473718893 0.33861882996281517 0.0
3.319411585766987 0.37136036029360925 0.0
6.679655353687879 0.3771096967147752 0.0
7.878986044466023 0.36486587675387905 0.0
2.120982398965287 0.36999725064225003 0.0
2.720110294908304 0.38037340989534724 0.0
7.279714263255622 0.3700720097878952 0.0
9.037270241729525 0.6717317713310852 0.0
0.9627286494925414 0.6733486022735438 0.0
1.5320838479015269 0.35417604125550617 0.0
8.467910220522688 0.3665148954637948 0.0
8.4582941427732 0.6868792011337056 0.0
1.5417001683069804 0.6731240248919692 0.0
0.979399867548295 0.36573583120478803 0.0
9.020598892084589 0.36491170112982074 0.0
4.52719977513678 0.6977280568370858 0.0
3.9214025971205593 0.6999065236033745 0.0
6.069685660353061 0.6915047711062203 0.0
2.118377000227049 0.6945938235823532 0.0
7.881594499758702 0.689230890003575 0.0
3.323361153138005 0.6989453450070748 0.0
6.675556617936698 0.7073718990671378 0.0
2.7253711642982243 0.7096407911620158 0.0
7.2744627556047945 0.6978809410929087 0.0
0.33283957811648507 0.3092359398774453 0.0
9.667160267575 0.2980291478647473 0.0
5.5813242199952935 0.31344558831153146 0.0
5.017220607393654 0.32083775121282637 0.0
5.509457727605611 0.6859656586772975 0.0
5.08739212201954 0.6915020241386738 0.0
0.6619005094000863 0.7419123989367402 0.0
9.338099094703836 0.7291950475525173 0.0
8.747624310933698 0.7453950968540571 0.0
1.252373519267943 0.7347008202872858 0.0
8.67038798527015 0.281979501043422 0.0
1.329609119789613 0.27022243433343024 0.0
0.6804015937606877 0.24303750678382638 0.0
9.319598013562974 0.23081194297944133 0.0
8.169907996896324 0.7485678566979352 0.0
1.8300810440168476 0.7412117868839876 0.0
8.082241617215228 0.2797937969843934 0.0
1.917743131779643 0.27648240398123014 0.0
7.48518059212732 0.2784813776502968 0.0
2.5147355678567003 0.2926594304678659 0.0
6.885160963517745 0.28807347006441225 0.0
3.11440486818889 0.2856205515644776 0.0
6.284935231342496 0.2760098638745238 0.0
3.7137890439671617 0.28092798018431786 0.0
2.4224493091282366 0.8245012159073022 0.0
7.577503963950287 0.799621359359884 0.0
3.021605110979875 0.8141877449899696 0.0
6.97810616043882 0.8145655397967173 0.0
3.6184596493043806 0.8023945516097987 0.0
6.379474968963881 0.8214524095260543 0.0
4.2168848970729265 0.8177544182564882 0.0
5.793598400131971 0.834405634619574 0.0
4.802574982299685 0.8511715042365353 0.0
5.299579324208868 0.1741174701590314 0.0
4.313878968230657 0.2770234794920449 0.0
4.743204933912199 0.24514184639913972 0.0
5.8557249860200855 0.23193410183350108 0.0
5.298372066438272 0.7085596893059523 0.0
0.19483726776373914 0.5052430228880621 0.0
9.805162635635 0.4990241284138295 0.0
9.48696324315936 0.14982908663127226 0.0
0.5130365845905718 0.17485570992497346 0.0
9.568925521163717 0.5068578654714896 0.0
0.4310742150289165 0.5175618288690765 0.0
9.509138635934866 0.8235727354368548 0.0
0.49086120529443344 0.8491305692166575 0.0
9.823684716681656 0.8217793854278901 0.0
0.17631523677656274 0.8336997776105235 0.0
7.690675621644166 0.1825803011973329 0.0
2.309290976058235 0.20284955097224108 0.0
8.876663735259061 0.19602889954881197 0.0
1.1233350733137466 0.18759411066730086 0.0
7.090880438808678 0.19116219771966478 0.0
2.908943048058047 0.19922425919337827 0.0
6.491076251558379 0.2018134054100896 0.0
3.508532326704049 0.18323636927317336 0.0
1.7133214029580364 0.17849430045332043 0.0
8.286672452418559 0.197781515050652 0.0
4.108122729065157 0.193944226791124 0.0
8.577560101808908 0.8410129467188956 0.0
1.4224373956493561 0.8161562552001613 0.0
8.923332976652725 0.8289952616893805 0.0
1.0766660706027564 0.8236045527361299 0.0
0.8418681022763337 0.8306566384428032 0.0
9.158131416719517 0.8191626278519778 0.0
8.345850371699123 0.8411180936377983 0.0
1.6541447900788724 0.8183144490417724 0.0
5.59244909036581 0.49763996523178977 0.0
5.005265140554419 0.5040228921953663 0.0
7.789405108097288 0.8307453907033101 0.0
2.210572817834266 0.8480459183958652 0.0
7.776865076966514 0.5480785898203163 0.0
2.2230886734397464 0.5558830883376745 0.0
2.815276574430454 0.8523871112150765 0.0
7.1845906022519115 0.8366346974582511 0.0
3.4120552053377082 0.8317145111954624 0.0
6.5870348172840005 0.8556201971741619 0.0
4.00920233505809 0.8429065042795395 0.0
5.984832283930923 0.842520444074562 0.0
4.611344717676711 0.8564589460727515 0.0
7.175166163324116 0.556387758977076 0.0
2.8245670238866487 0.5638130551467045 0.0
6.575204015930798 0.5602401447297285 0.0
3.4230889069784363 0.5553181333138153 0.0
5.9780309200897666 0.53025486122787 0.0
4.0224080064779395 0.5555011221255305 0.0
4.6195755378369325 0.5373295475669493 0.0
8.548997314162909 0.546543407533484 0.0
[...]
POINT_DATA 386
VECTORS vector double
1.0 0.0 0.0
0.0 0.0 0.0
0.0 0.0 0.0
0.0 0.0 0.0
0.0 0.0 0.0
1.0 0.0 0.0
0.0 0.0 0.0
0.0 0.0 0.0
0.0 0.0 0.0
0.0 0.0 0.0
0.0 0.0 0.0
0.0 0.0 0.0
0.0 0.0 0.0
0.0 0.0 0.0
0.0 0.0 0.0
0.0 0.0 0.0
0.0 0.0 0.0
0.0 0.0 0.0
0.0 0.0 0.0
0.0 0.0 0.0
0.0 0.0 0.0
0.0 0.0 0.0
0.0 0.0 0.0
0.0 0.0 0.0
0.0 0.0 0.0
0.0 0.0 0.0
0.0 0.0 0.0
0.0 0.0 0.0
0.0 0.0 0.0
0.0 0.0 0.0
0.0 0.0 0.0
0.0 0.0 0.0
0.0 0.0 0.0
0.0 0.0 0.0
0.0 0.0 0.0
0.0 0.0 0.0
0.0 0.0 0.0
0.0 0.0 0.0
0.0 0.0 0.0
0.0 0.0 0.0
0.0 0.0 0.0
0.0 0.0 0.0
0.0 0.0 0.0
0.0 0.0 0.0
0.0 0.0 0.0
0.0 0.0 0.0
0.0 0.0 0.0
0.0 0.0 0.0
0.0 0.0 0.0
0.0 0.0 0.0
0.0 0.0 0.0
0.0 0.0 0.0
0.0 0.0 0.0
0.0 0.0 0.0
0.894887686102 0.0923958276214 0.0
1.40097579466 0.00264156834229 0.0
1.42329133443 -0.00562660035271 0.0
1.0169558943 -0.0874672345806 0.0
0.0 0.0 0.0
0.0 0.0 0.0
0.0 0.0 0.0
0.0 0.0 0.0
0.0 0.0 0.0
0.0 0.0 0.0
0.0 0.0 0.0
0.0 0.0 0.0
0.0 0.0 0.0
0.0 0.0 0.0
0.0 0.0 0.0
0.0 0.0 0.0
0.0 0.0 0.0
0.0 0.0 0.0
0.0 0.0 0.0
0.0 0.0 0.0
0.0 0.0 0.0
0.0 0.0 0.0
0.0 0.0 0.0
0.0 0.0 0.0
0.0 0.0 0.0
0.0 0.0 0.0
0.0 0.0 0.0
0.0 0.0 0.0
0.0 0.0 0.0
0.0 0.0 0.0
0.0 0.0 0.0
0.0 0.0 0.0
0.0 0.0 0.0
0.0 0.0 0.0
0.0 0.0 0.0
0.0 0.0 0.0
0.0 0.0 0.0
0.0 0.0 0.0
0.0 0.0 0.0
0.0 0.0 0.0
0.0 0.0 0.0
0.0 0.0 0.0
0.0 0.0 0.0
0.0 0.0 0.0
0.0 0.0 0.0
0.0 0.0 0.0
0.0 0.0 0.0
0.0 0.0 0.0
0.0 0.0 0.0
0.0 0.0 0.0
0.0 0.0 0.0
0.0 0.0 0.0
0.0 0.0 0.0
1.0 0.0 0.0
1.0 0.0 0.0
1.0 0.0 0.0
1.0 0.0 0.0
1.23519594168 -0.0430780717487 0.0
1.46331475268 -0.0373982810049 0.0
1.43915979796 -0.0118436658092 0.0
1.35682419802 -0.0321354326012 0.0
1.43818810199 0.0307685777147 0.0
1.41055793732 0.02627748317 0.0
1.39057637142 0.0186480599463 0.0
1.42212667806 -0.00434410024522 0.0
1.4035286384 -0.0288732278131 0.0
1.40690028148 -0.0229485469392 0.0
1.41902581613 -0.0041873288658 0.0
1.40846690527 0.0200656948788 0.0
1.41088718371 0.023205776334 0.0
1.45787288605 0.0193792788633 0.0
1.45708747432 -0.0186922014784 0.0
1.4910509813 -0.0192219671901 0.0
1.26291416155 -0.00179695451917 0.0
1.11691209457 -0.102786387002 0.0
1.33254591302 0.0140984920815 0.0
1.36205659111 0.0227731279963 0.0
1.3106622666 0.0209825388462 0.0
1.37429238974 -0.0229289502317 0.0
1.37100480207 -0.00392525140476 0.0
1.36526687358 0.022468722224 0.0
1.36309229026 0.0438374022977 0.0
1.3877397371 -0.00642367574684 0.0
1.36954700762 -0.0292006560855 0.0
1.31427603846 -0.0375653315979 0.0
1.24099251838 -0.0573513502753 0.0
1.35368259983 0.0225011493245 0.0
1.36192599917 0.0147016914517 0.0
1.3036484852 0.0115532032938 0.0
1.27037165476 -0.00242321873081 0.0
1.34646724936 -0.00878701864904 0.0
1.37909287577 -0.0407812888758 0.0
1.25175976531 -0.000420277387335 0.0
1.2424732648 0.027492110199 0.0
1.27189240333 0.0365268596785 0.0
1.24950242904 0.0421170483786 0.0
1.27980519492 0.020343623702 0.0
1.24366388168 -0.0252533133335 0.0
1.2300149039 -0.00894193446912 0.0
1.21898514762 -0.00973464468324 0.0
1.24624965522 -0.0308688665737 0.0
1.15001451187 0.103928625608 0.0
1.29205268793 -0.0204072851993 0.0
1.26775130584 0.00204423333418 0.0
1.28303487373 -0.0298030011031 0.0
1.24565788916 0.0180004107672 0.0
1.23285379367 -0.0478863765539 0.0
1.15686952361 -0.0703639878413 0.0
1.190073339 -0.0341072713074 0.0
1.16724811241 -0.0139717734866 0.0
1.14186848556 -0.0426256807556 0.0
1.1969518838 -0.00175462474896 0.0
1.22288764638 -0.0104137779323 0.0
1.21193243207 0.0216122318522 0.0
1.11805084097 -0.0357641074008 0.0
1.16127629857 0.0304549493786 0.0
1.14692645169 0.0217520179403 0.0
1.19025379442 0.040144136833 0.0
1.21408447225 0.0286470012744 0.0
1.19875079964 -0.00219484618858 0.0
1.22392338656 0.010925110384 0.0
1.21394243544 -0.0171583928016 0.0
1.2097141518 -0.0431754018612 0.0
1.18223476856 0.0304050142715 0.0
1.2051661185 -0.00345202809861 0.0
0.863809361456 0.0139293690901 0.0
0.995849407015 0.00186802567757 0.0
0.940858069029 -0.038254250712 0.0
0.93837220778 -0.0369655213813 0.0
0.983221852683 0.00452478463344 0.0
0.878531735027 0.020086652919 0.0
0.881915453599 0.030481432886 0.0
0.859319583265 0.0244886738768 0.0
0.784593912352 -0.0232435730405 0.0
0.879579553247 -0.0225660146145 0.0
1.1922745587 0.0246046241664 0.0
1.03443798148 -0.0394646466407 0.0
0.974070282108 0.039472135846 0.0
1.15952408393 -0.0168438704758 0.0
1.00925999258 -0.00164469571187 0.0
1.47488660572 -0.0115969050641 0.0
0.795861268412 -0.0125821495588 0.0
1.15204749674 0.0710577954321 0.0
1.48250980193 -0.0218763514253 0.0
1.1359042146 -0.0145697465748 0.0
0.861702085906 -0.0174900655291 0.0
0.967809155419 -0.0666302373741 0.0
0.785829241259 -0.0503805336312 0.0
1.10117108277 -0.150769058858 0.0
0.901811056763 0.00433080568743 0.0
1.02077389228 0.0439888345151 0.0
0.938943709283 -0.0421929041516 0.0
1.01165244071 -0.0120671560183 0.0
0.918056756665 -0.0453672389487 0.0
0.960290504938 -0.0228075195775 0.0
0.998369616401 0.00134164863384 0.0
0.895271210564 0.000855916189654 0.0
0.939562610374 0.036162153536 0.0
0.984776541077 0.0223203477175 0.0
0.972730469278 0.047180270699 0.0
0.793029472325 -0.00781029829858 0.0
0.9234499704 -0.015804469999 0.0
0.861805778265 -0.0241012877314 0.0
0.914472655849 -0.0684368546532 0.0
0.916987111367 -0.0541951529559 0.0
0.900758118307 -0.0516819809711 0.0
0.785141033715 0.0326051876217 0.0
0.900709988827 -0.000645637154521 0.0
1.46177762034 -0.0112154830917 0.0
1.466736205 -0.0132710638097 0.0
0.842159970353 0.0189569774381 0.0
0.753293760053 0.0349197901205 0.0
1.48832074131 0.0184447418836 0.0
1.45870514447 0.0312247086936 0.0
0.779622341848 -0.0257636359679 0.0
0.861033016126 -0.0341863684927 0.0
0.879855839509 -0.0242712692886 0.0
0.749575401494 5.80714158899e-05 0.0
0.78004397312 0.0317435570921 0.0
0.816563316315 0.0395922637432 0.0
0.757407294033 -0.00963390520504 0.0
1.47935149606 -0.0255551001082 0.0
1.46945278413 -0.0273039698119 0.0
1.47255126661 0.013293095028 0.0
1.48253181305 -0.0243103072163 0.0
1.47212198415 0.0287604386379 0.0
1.47885580265 0.0197999824596 0.0
1.47593608151 -0.00735215113432 0.0
1.475629032 0.000909017581965 0.0
1.41385332082 -0.00148349661503 0.0
1.34970895931 -0.0394313936397 0.0
1.31440773305 -0.0394096929289 0.0
1.48673680399 -0.0311369343166 0.0
1.48324375605 -0.0487350526384 0.0
1.46153760717 0.0152991829179 0.0
1.44198761606 0.0170233378397 0.0
1.49183255844 0.0207336318591 0.0
1.4490125933 0.0441315513882 0.0
1.47274675804 0.0240727073607 0.0
1.46590831973 0.0264987566408 0.0
1.45543834973 0.0281304772631 0.0
1.45870607579 -0.0182716150855 0.0
1.45615839726 -0.0272383691351 0.0
1.44363766745 0.0141911155642 0.0
1.46460481314 -0.0322616833007 0.0
0.737609560333 0.00965367238753 0.0
0.824669657679 0.029915883715 0.0
0.768128686119 0.0360959567136 0.0
0.820987512224 0.0527182935328 0.0
0.827642211539 0.0186097226597 0.0
0.861668119214 -0.0326102659243 0.0
0.777503176947 -0.022816764525 0.0
0.744988931221 -0.00339811549996 0.0
0.8829254524 -0.0274552206323 0.0
0.926855599677 0.00957536347571 0.0
0.859400656135 -0.0403890932721 0.0
1.18212216515 0.209161512574 0.0
0.857589182248 0.00088294544085 0.0
0.87358934034 -0.0291762403179 0.0
1.05755281162 -0.0328425176896 0.0
1.33193475612 -0.0409062389739 0.0
1.19022227588 -0.0907107695145 0.0
0.835243048068 -0.00429551201117 0.0
0.891299360337 0.0157017306589 0.0
0.826909937913 0.0408364267943 0.0
0.89829385722 0.0372273480804 0.0
0.826187923713 0.0598775377128 0.0
0.86350893079 -0.00398692519018 0.0
0.785482328697 -0.0151213002929 0.0
0.898053535702 -0.0162767368532 0.0
0.884016891378 -0.0098934044119 0.0
0.789611018721 -0.0353934529922 0.0
1.41072256437 -0.021351657593 0.0
1.36167594435 -0.00958426933415 0.0
0.840275819831 0.0204543422512 0.0
1.41024037366 0.0330694985809 0.0
1.39233086663 0.0279718391535 0.0
0.867352451738 -0.0356798940739 0.0
0.905402704093 0.0763408702134 0.0
1.42714966583 0.0267259628099 0.0
1.41508098948 0.00942253142843 0.0
0.897837253442 -0.0118777294515 0.0
0.829254530755 -0.00587223141893 0.0
1.4323163212 -0.0294261215763 0.0
1.42558914047 -0.0245380490849 0.0
1.42085004239 0.0242805931302 0.0
1.41902874313 -0.0147479111572 0.0
0.829266437356 -0.0174042149512 0.0
1.41920477926 0.0200340489662 0.0
1.34868438957 0.041573588505 0.0
1.37087530343 -0.0483849394079 0.0
1.28363793935 0.00981266261947 0.0
1.2611119574 -0.0342477117332 0.0
1.26150405958 -0.0115166227532 0.0
1.26584097309 0.0367707638453 0.0
1.28618157862 0.02556718037 0.0
1.26840336366 0.000347066494247 0.0
1.24470097404 0.0361407462654 0.0
1.26082442273 0.0048779805706 0.0
1.26330596474 -0.00786230144522 0.0
1.23894512868 -0.0179421403158 0.0
1.25931495363 -0.0383357527944 0.0
1.29390213255 -0.032927213584 0.0
1.24204225559 -0.0456061515216 0.0
1.26597742776 0.0146188934411 0.0
1.27162210633 0.0244408732749 0.0
1.29241389393 0.0381074452256 0.0
1.27796841758 0.0184881430642 0.0
1.28576017194 0.0176412189433 0.0
1.21713886041 -0.0736055733168 0.0
1.3209497719 -0.0294135507165 0.0
1.25844834844 0.00411569648613 0.0
1.27914364674 0.0328606999063 0.0
1.25407549775 -0.0392998989408 0.0
1.24618201954 -0.0136775964426 0.0
1.25809398604 0.0530013904395 0.0
1.36153076287 -0.0255749683191 0.0
1.24024406593 0.000599055210587 0.0
1.26539326395 -0.0114996125827 0.0
1.35673467221 -0.0240643261619 0.0
1.36339344003 -0.0135570310426 0.0
0.937793836667 -0.132391535581 0.0
1.30542801044 -0.00457232893154 0.0
1.28476828999 -0.00871401326973 0.0
1.47559541706 -0.0253081338673 0.0
1.4771521323 -0.00942063854718 0.0
1.31376099228 -0.000999008323208 0.0
1.03317165833 0.0935044844299 0.0
0.680977908862 -0.00927895532415 0.0
1.19754962083 0.16366920364 0.0
1.01541641378 -0.0898648569022 0.0
1.2964259288 -0.00195730974659 0.0
1.36660514361 -0.0355114445221 0.0
1.29725176847 0.00549425491916 0.0
1.46366552437 -0.0133737980994 0.0
1.38737891027 0.0139423050974 0.0
0.833527730471 0.112704002755 0.0
0.723106621763 0.0416275876035 0.0
1.03578065623 -0.113772376384 0.0
0.897738579027 -0.0821076530126 0.0
1.45372534805 0.0203212531659 0.0
1.43087895472 0.0531516599123 0.0
0.727825784604 0.0491723013641 0.0
0.636670940552 0.0189693180412 0.0
0.720629349984 0.00878260925751 0.0
1.46994926454 0.0273772230477 0.0
1.45534064678 -0.027900827088 0.0
1.45006911843 -0.0222928460539 0.0
1.42661260301 0.0329727893054 0.0
1.46345597757 -0.0176595998434 0.0
1.46970911679 -0.0332993425134 0.0
1.45800927159 0.0208385943463 0.0
1.46334215913 0.0269186581296 0.0
0.642135503952 -0.0237879050348 0.0
0.675409842907 -0.0380708078306 0.0
1.46994168065 0.0259108822372 0.0
0.768370142678 0.019794949271 0.0
0.611803825507 -0.0176444806875 0.0
0.700499996948 0.0455513851272 0.0
0.708654169659 0.0283443145722 0.0
0.740688836354 -0.0345087088057 0.0
0.720582445596 -0.0466517172909 0.0
0.625929498658 -0.0134272952867 0.0
0.755267229503 -0.0464154825663 0.0
0.707078158135 0.0143791674505 0.0
0.715663681574 -0.0315847364172 0.0
0.59507309299 0.034983301116 0.0
0.672458315559 0.0203839958358 0.0
0.503897206524 0.0570027571558 0.0
1.12386649732 0.00509806850403 0.0
0.861393204216 -0.0210736502817 0.0
0.552904805371 0.00349855454779 0.0

SCALARS scalar1 double
LOOKUP_TABLE default
3.40987462342
6.21038593299
4.68679592043
4.89210131812
-5.97812412778
-2.58187786191
9.26344138132
8.11805033754
6.26664603491
5.95632534058
5.94083037194
6.50928073724
6.90310829458
6.36044171982
5.76170238839
5.037537933
4.72075954691
4.76889933919
4.96225353871
5.53087002559
6.05547582996
6.59470071666
6.55008885587
6.14239235408
5.53551484607
5.05842858422
4.66441458989
4.69647307224
5.1096325613
5.35918486831
7.26496248693
4.92354259636
8.33622466304
6.4055286389
6.07334507308
5.30090617364
4.76307471577
4.76480284006
4.87814392856
5.38603828087
5.95971442899
6.50758619791
6.54841765291
6.15393149706
5.53887944147
5.23357785743
4.55279473405
4.83230820656
5.24081244076
5.59579030168
6.25580718807
6.39674361636
6.73377271062
5.67356564885
3.72406824014
1.32186657026
-0.987507118401
-3.08817018568
-5.58417837135
-5.28216171301
-4.6074776823
-4.58254775098
-5.4249083006
-5.79315448672
-6.88332995033
-6.60405176381
-6.22563706882
-6.00026113246
-5.27621501176
-4.68747918488
-4.85013215955
-5.09088427368
-5.21218398594
-6.16111436794
-6.57103092363
-6.48138312479
-6.58916214187
-7.47031726618
-4.42653935568
-5.0279059872
-4.92438096997
-5.16268925872
-5.63615607402
-5.23832390984
-8.26846132977
-6.98819285886
-6.17646732364
-5.899209004
-5.34096025767
-4.70689452099
-4.86991224529
-5.0454546834
-5.2755681538
-6.09033393902
-6.8664319154
-6.55322205069
-6.55145408444
-6.3022209602
-5.45562172272
-5.42736944639
-5.72687073976
-5.61710951939
-6.59237031927
-7.3027206928
-8.84097408014
-11.744806112
-12.5639598589
2.9860985096
-0.0370250490967
-0.00774330828089
-2.69618972407
0.109189104069
0.54552289415
0.790400886856
0.622799562761
0.81981024617
0.796012573308
1.08588451665
1.10553281009
1.15564628162
1.11451288644
1.14700937948
0.979583675642
1.02589607289
0.244053377774
0.3762479841
0.214831190626
2.5821977179
-0.715981693452
-1.94488350869
-1.46061505736
-1.76491826737
-1.41718929168
-1.59164975727
-1.47464420877
-1.36990609983
-1.4775504695
-1.45745314427
1.94345889303
1.12142035233
-0.996691608702
-1.71365638065
2.00149584809
1.92130897432
-0.188082089169
-1.6105954757
2.0931643145
2.47167161044
2.09815773536
2.12894484187
2.3585773472
2.36110709501
2.14051092373
2.13792282821
2.32683203585
0.880301234226
-2.06414413238
-1.93283436839
-2.05025053032
2.21128792271
2.23188975268
1.0728768925
2.82102723297
2.55244869604
2.36060805456
-2.88841236906
-1.89034778448
-2.33457300228
-2.92859161424
2.82267498917
2.86435934283
-2.54332301819
-2.21383760273
-2.34395198249
-2.62404755829
-2.68834426641
-2.5512981895
-2.71932245242
-2.28216267661
3.58607271628
3.57023746915
3.34882898903
3.37572004922
3.62869884733
3.64499812621
3.72326230732
4.07481249301
3.78871537613
-3.71400003944
-2.69951153856
-3.13918039743
-2.8138689786
2.33250049546
0.0615756135751
0.0971463323021
-3.90630764069
-3.09514967396
0.166280982642
0.0794065990606
3.90945318116
3.18290353493
4.11059271541
-0.238801746465
-3.46285646564
-3.39704573215
-3.77402224322
-3.34975776463
-3.68773612366
-3.81203183998
-3.56427555196
-3.55207031469
-3.44608812953
-3.47953434
-3.34185758692
3.74430303269
3.4732500888
3.52428573027
3.15412671052
3.1025515931
3.48803837311
3.84875398191
3.69070337619
-0.00274533875761
0.0585417223971
3.96948850931
3.91924548759
0.537429108393
0.623591670077
3.76329438016
3.71362748322
3.81359262693
3.92016571448
4.10428543934
4.14520305867
3.90953053838
0.625398777657
0.72252076092
0.61359724078
0.626407219626
0.287555991352
0.59822247131
0.421443411969
0.496257637514
0.478170866759
0.332407836888
0.224805280643
0.369086014625
0.298787371638
0.561458282507
0.427050029324
0.436271812659
0.575087075701
0.513631676247
0.673553629305
0.479878560802
0.715384661721
0.730726416411
0.751812124725
0.67466341122
3.94226706715
4.03189301275
4.05643311336
3.8676194419
4.03135239439
3.71372271465
3.80834045325
3.8772387621
3.78312269978
-3.53540666926
-3.51007516238
0.314274489233
-3.82716241141
-3.8431390047
-3.36510530804
2.04201296462
-0.261674512
-3.99376298204
-3.97801632463
-3.79721099747
-3.72794372617
-3.89592753035
-4.06397744943
-3.98825216993
-4.04690798345
-4.02756476745
-3.95819327243
-1.28918694452
-0.237232331444
-3.69979618208
-1.24256376549
-0.830133985573
-3.77224356516
3.57029363306
-0.966124883704
-1.08516754921
3.80288345575
-3.75989171362
-1.01821204358
-1.08179968308
-1.16219479672
-1.04324648113
3.74752884443
-1.13078638507
-1.52575605411
-1.59414473506
1.92081054758
1.71894861423
2.07398042295
2.3323464027
2.10803105571
2.49271180916
2.13199767465
2.11971443579
2.43110124029
2.21350269931
2.2515485702
1.84114691307
1.25226082901
2.17568285322
2.03540219064
2.10433405882
1.83516781313
1.97267523276
0.792914273079
1.8377583207
2.57591646244
2.11311069826
2.2967043155
2.22386754291
0.395251067226
-1.63905327231
2.13902350999
2.40989424159
-1.34878974325
-1.38371657287
3.45088791669
2.11629710018
2.05295647193
0.722283794222
0.689887997165
-1.98038361376
1.38778211145
-4.41923260172
-3.11073941317
-1.17229391114
2.37681582459
-1.53861616477
0.143538293232
-0.84079791409
-0.201659376271
-3.94665974745
4.3851244426
4.02246329711
-4.27945355048
-0.780205911424
-0.565865874314
-4.14127606564
-4.23597624663
-4.16519270428
-0.529790857972
-0.670780177329
-1.14217909738
-1.16047269148
-0.608302987865
-0.637634072535
-0.681387373727
-0.779292965756
-4.35341558917
-4.39061737063
-0.779059275142
-4.1870028402
-4.33317514281
-4.2986999295
-4.15597760516
4.30663378196
4.10528011844
4.28168674115
3.97775787757
-4.59205490648
-4.39931147904
4.48786588624
4.31257403061
4.43440551897
1.05757082618
-4.50482649217
-4.44251339266

SCALARS scalar2 double
LOOKUP_TABLE default
3.40987462342
6.21038593299
4.68679592043
4.89210131812
-5.97812412778
-2.58187786191
9.26344138132
8.11805033754
6.26664603491
5.95632534058
5.94083037194
6.50928073724
6.90310829458
6.36044171982
5.76170238839
5.037537933
4.72075954691
4.76889933919
4.96225353871
5.53087002559
6.05547582996
6.59470071666
6.55008885587
6.14239235408
5.53551484607
5.05842858422
4.66441458989
4.69647307224
5.1096325613
5.35918486831
7.26496248693
4.92354259636
8.33622466304
6.4055286389
6.07334507308
5.30090617364
4.76307471577
4.76480284006
4.87814392856
5.38603828087
5.95971442899
6.50758619791
6.54841765291
6.15393149706
5.53887944147
5.23357785743
4.55279473405
4.83230820656
5.24081244076
5.59579030168
6.25580718807
6.39674361636
6.73377271062
5.67356564885
3.72406824014
1.32186657026
-0.987507118401
-3.08817018568
-5.58417837135
-5.28216171301
-4.6074776823
-4.58254775098
-5.4249083006
-5.79315448672
-6.88332995033
-6.60405176381
-6.22563706882
-6.00026113246
-5.27621501176
-4.68747918488
-4.85013215955
-5.09088427368
-5.21218398594
-6.16111436794
-6.57103092363
-6.48138312479
-6.58916214187
-7.47031726618
-4.42653935568
-5.0279059872
-4.92438096997
-5.16268925872
-5.63615607402
-5.23832390984
-8.26846132977
-6.98819285886
-6.17646732364
-5.899209004
-5.34096025767
-4.70689452099
-4.86991224529
-5.0454546834
-5.2755681538
-6.09033393902
-6.8664319154
-6.55322205069
-6.55145408444
-6.3022209602
-5.45562172272
-5.42736944639
-5.72687073976
-5.61710951939
-6.59237031927
-7.3027206928
-8.84097408014
-11.744806112
-12.5639598589
2.9860985096
-0.0370250490967
-0.00774330828089
-2.69618972407
0.109189104069
0.54552289415
0.790400886856
0.622799562761
0.81981024617
0.796012573308
1.08588451665
1.10553281009
1.15564628162
1.11451288644
1.14700937948
0.979583675642
1.02589607289
0.244053377774
0.3762479841
0.214831190626
2.5821977179
-0.715981693452
-1.94488350869
-1.46061505736
-1.76491826737
-1.41718929168
-1.59164975727
-1.47464420877
-1.36990609983
-1.4775504695
-1.45745314427
1.94345889303
1.12142035233
-0.996691608702
-1.71365638065
2.00149584809
1.92130897432
-0.188082089169
-1.6105954757
2.0931643145
2.47167161044
2.09815773536
2.12894484187
2.3585773472
2.36110709501
2.14051092373
2.13792282821
2.32683203585
0.880301234226
-2.06414413238
-1.93283436839
-2.05025053032
2.21128792271
2.23188975268
1.0728768925
2.82102723297
2.55244869604
2.36060805456
-2.88841236906
-1.89034778448
-2.33457300228
-2.92859161424
2.82267498917
2.86435934283
-2.54332301819
-2.21383760273
-2.34395198249
-2.62404755829
-2.68834426641
-2.5512981895
-2.71932245242
-2.28216267661
3.58607271628
3.57023746915
3.34882898903
3.37572004922
3.62869884733
3.64499812621
3.72326230732
4.07481249301
3.78871537613
-3.71400003944
-2.69951153856
-3.13918039743
-2.8138689786
2.33250049546
0.0615756135751
0.0971463323021
-3.90630764069
-3.09514967396
0.166280982642
0.0794065990606
3.90945318116
3.18290353493
4.11059271541
-0.238801746465
-3.46285646564
-3.39704573215
-3.77402224322
-3.34975776463
-3.68773612366
-3.81203183998
-3.56427555196
-3.55207031469
-3.44608812953
-3.47953434
-3.34185758692
3.74430303269
3.4732500888
3.52428573027
3.15412671052
3.1025515931
3.48803837311
3.84875398191
3.69070337619
-0.00274533875761
0.0585417223971
3.96948850931