# vtk DataFile Version 2.0
2D Simulation Python
ASCII
DATASET UNSTRUCTURED_GRID
FIELD FieldData 1
NODES 1 2 int
386 659

POINTS 386 double
0.0 1.0 0.0
1.725 0.9617718105909087 0.0
8.275 1.038228189409091 0.0
10.0 1.0 0.0
10.0 -6.156715217258983e-17 0.0
0.0 0.0 0.0
0.1916666666663293 1.0284751644347423 0.0
0.3833333333324708 1.0469342574720029 0.0
0.574999999998553 1.0488843370177567 0.0
0.7666666666645966 1.0336394672276221 0.0
0.9583333333312576 1.0065619948093718 0.0
1.149999999998384 0.9771763563163226 0.0
1.341666666665662 0.9558188802316603 0.0
1.533333333332819 0.9500020079963031 0.0
1.92348484848444 0.9880313539638408 0.0
2.121969696968978 1.0187957599818567 0.0
2.320454545453434 1.0424856550842418 0.0
2.518939393937826 1.0501844313948985 0.0
2.717424242422235 1.0389943568136617 0.0
2.915909090906411 1.0131272485189011 0.0
3.1143939393908 0.9823191927429534 0.0
3.312878787875129 0.9581659923204305 0.0
3.511363636359531 0.9497586379960986 0.0
3.709848484843827 0.9602615625992937 0.0
3.90833333332816 0.9857215844112185 0.0
4.106818181812215 1.0165558399352788 0.0
4.305303030296804 1.0411586650489117 0.0
4.503787878781365 1.0502698353721969 0.0
4.702272727265711 1.040460009714991 0.0
4.900757575750005 1.0154214952125051 0.0
5.099242424235156 0.9845785047897259 0.0
5.297727272720327 0.9595399902863163 0.0
5.496212121205663 0.9497301646278284 0.0
5.694696969690998 0.9588413349499815 0.0
5.89318181817668 0.9834441600630662 0.0
6.09166666666213 1.0142784155873106 0.0
6.290151515147423 1.03973843739986 0.0
6.488636363633031 1.0502413620038606 0.0
6.687121212118713 1.041834007680108 0.0
6.885606060604342 1.0176808072577646 0.0
7.084090909089381 0.9868727514817407 0.0
7.282575757574369 0.961005643186677 0.0
7.481060606059355 0.9498155686051266 0.0
7.679545454544343 0.95751434491557 0.0
7.878030303029329 0.9812042400178944 0.0
8.076515151514705 1.011968646036028 0.0
8.46666666666447 1.0499979920036522 0.0
8.658333333329285 1.0441811197687199 0.0
8.84999999999549 1.0228236436845408 0.0
9.041666666661694 0.9934380051917319 0.0
9.233333333327899 0.9663605327732585 0.0
9.42499999999549 0.951115662982461 0.0
9.616666666663775 0.9530657425277853 0.0
9.808333333331985 0.971524835565038 0.0
10.0 0.7999999999999998 0.0
10.0 0.6000000000013869 0.0
10.0 0.4000000000016644 0.0
10.0 0.2000000000008322 0.0
9.799999999999999 -0.029549960117391173 0.0
9.6 -0.04781283983614245 0.0
9.399999999999999 -0.047812839836142346 0.0
9.2 -0.02954996011739079 0.0
8.999999999999998 4.126243925883191e-16 0.0
8.799999999999997 0.02954996011739144 0.0
8.599999999999998 0.04781283983614256 0.0
8.399999999999997 0.04781283983614225 0.0
8.199999999999998 0.029549960117390656 0.0
7.999999999999997 -4.0646767737106e-16 0.0
7.799999999999997 -0.02954996011739144 0.0
7.599999999999998 -0.04781283983614256 0.0
7.399999999999997 -0.04781283983614225 0.0
7.199999999999998 -0.029549960117390806 0.0
6.999999999999997 4.0031096215380116e-16 0.0
6.799999999999997 0.02954996011739145 0.0
6.599999999999998 0.04781283983614256 0.0
6.399999999999997 0.04781283983614223 0.0
6.199999999999998 0.0295499601173908 0.0
5.999999999999997 -3.9415424693654213e-16 0.0
5.799999999999998 -0.029549960117391305 0.0
5.599999999999998 -0.04781283983614256 0.0
5.399999999999999 -0.047812839836142394 0.0
5.199999999999998 -0.0295499601173908 0.0
4.999999999999999 2.0939055390278913e-16 0.0
4.799999999999999 0.029549960117391118 0.0
4.599999999999999 0.047812839836142526 0.0
4.399999999999999 0.047812839836142325 0.0
4.199999999999999 0.029549960117390885 0.0
3.999999999999999 -2.0323383868553e-16 0.0
3.799999999999999 -0.029549960117391118 0.0
3.599999999999999 -0.04781283983614248 0.0
3.399999999999998 -0.047812839836142325 0.0
3.199999999999998 -0.02954996011739066 0.0
2.999999999999999 1.9707712346827106e-16 0.0
2.799999999999998 0.029549960117391205 0.0
2.599999999999998 0.04781283983614257 0.0
2.399999999999999 0.04781283983614238 0.0
2.199999999999999 0.029549960117390812 0.0
1.999999999999998 -3.248756416133826e-16 0.0
1.799999999999999 -0.029549960117391146 0.0
1.6 -0.047812839836142415 0.0
1.4 -0.047812839836142415 0.0
1.199999999999999 -0.02954996011739083 0.0
0.9999999999999982 2.9639305416906196e-16 0.0
0.7999999999999989 0.029549960117391146 0.0
0.6000000000000014 0.04781283983614236 0.0
0.3999999999999986 0.04781283983614236 0.0
0.1999999999999993 0.02954996011739088 0.0
0.0 0.1999999999995579 0.0
0.0 0.3999999999989749 0.0
0.0 0.5999999999989468 0.0
0.0 0.7999999999994734 0.0
0.6588466721388009 0.5517630098587812 0.0
9.341152799492853 0.5401753345310267 0.0
8.74143284395751 0.5723370257177096 0.0
1.2585641979714732 0.5625865758750228 0.0
8.162841450163658 0.5760852695629164 0.0
1.8371433497661622 0.5695216817521284 0.0
2.430441360732797 0.6062730481902912 0.0
7.56947744344364 0.5893368424071372 0.0
3.030492246383246 0.6016239169956731 0.0
6.969026184881065 0.6008201732445093 0.0
3.6286638988064253 0.5931489701600824 0.0
6.367982669893595 0.5984631774411155 0.0
4.229400771697799 0.5966059744957731 0.0
5.795134235646752 0.5226988894762788 0.0
4.802478518869476 0.5321736253848425 0.0
5.298820266745057 0.5122282533616435 0.0
9.677454509490419 0.6908182035234219 0.0
0.3225453491357464 0.7101956757382472 0.0
4.530525394760073 0.34880052358424024 0.0
3.918822762608983 0.37051180895407193 0.0
6.067964737204973 0.338416896577463 0.0
3.3194115857204225 0.36834600572230497 0.0
6.679655353718422 0.38013542324362953 0.0
7.8789860445228 0.3632530437017871 0.0
2.1209823988963294 0.3716100801636047 0.0
2.720110294850262 0.3826282777447631 0.0
7.2797142632998115 0.3678169593226316 0.0
9.037270241773763 0.6713361171241315 0.0
0.9627286494417842 0.6737442562114153 0.0
1.532083847832813 0.35096230180870935 0.0
8.467910220581432 0.36972863511662 0.0
8.458294142834205 0.6902113177493322 0.0
1.5417001682356295 0.6697919077886065 0.0
0.9793998674977205 0.365656300220929 0.0
9.020598892128625 0.36499123181993026 0.0
4.527199775116798 0.7019085991816828 0.0
3.921402597087575 0.6986988643010579 0.0
6.069685660368699 0.6927790533938422 0.0
2.118377000157757 0.6962521407703349 0.0
7.8815944998158 0.6875725861364735 0.0
3.3233611530931313 0.6954430647510672 0.0
6.675556617965958 0.7108838407036312 0.0
2.725371164242138 0.712901748934105 0.0
7.274462755647386 0.6946194778989265 0.0
0.33283957810128967 0.31304313023515146 0.0
9.66716026758836 0.29422195743323903 0.0
5.581324219999904 0.30882564632114917 0.0
5.017220607384769 0.3205769621055889 0.0
5.509457727608524 0.6809551960347953 0.0
5.087392122012498 0.6896478520222841 0.0
0.661900509370239 0.7464551237759675 0.0
9.338099094730001 0.7246523225727514 0.0
8.747624310982 0.7490116210557118 0.0
1.2523735192120922 0.7310842956120195 0.0
8.670387985317367 0.28660171381923377 0.0
1.3296091197348199 0.2656002212199053 0.0
0.6804015937335834 0.2481005790707414 0.0
9.319598013586718 0.22574887055970833 0.0
8.169907996950457 0.7513067501222253 0.0
1.8300810439525557 0.7384728969351559 0.0
8.082241617265849 0.2812208138320085 0.0
1.917743131719114 0.2750553909285304 0.0
7.485180592169131 0.27300795283926893 0.0
2.5147355678035246 0.2981327107951062 0.0
6.885160963548038 0.2900873090534206 0.0
3.114404868145447 0.28361102878640354 0.0
6.284935231360667 0.2801497481428247 0.0
3.713789043933959 0.2766806578692022 0.0
2.4224493090867973 0.8333375393018065 0.0
7.577503963983274 0.7907849887328374 0.0
3.021605110946229 0.813798642896789 0.0
6.978106160462766 0.8149543123992133 0.0
3.6184596492783574 0.7937847413699858 0.0
6.37947496897883 0.8300947728541974 0.0
4.216884897055232 0.8232263744553298 0.0
5.793598400137367 0.828031299519712 0.0
4.802574982291808 0.8573264530974899 0.0
5.29957932420758 0.1657727497916254 0.0
4.313878968208875 0.28181490129162673 0.0
4.74320493389961 0.2500085340309179 0.0
5.855724986029231 0.22742540493993663 0.0
5.298372066436396 0.7033774609406991 0.0
0.19483726775320995 0.5061183377040928 0.0
9.805162635644267 0.49814881354622226 0.0
9.486963243172095 0.1399948294403108 0.0
0.5130365845760643 0.18468996704574797 0.0
9.568925521185047 0.5056950062613602 0.0
0.4310742150046395 0.5187246879623488 0.0
9.509138635947739 0.8136950136241352 0.0
0.4908612052797804 0.8590082909593006 0.0
9.823684716686579 0.8167288175094592 0.0
0.17631523677097466 0.8387503455012526 0.0
7.690675621675946 0.17473407594540122 0.0
2.309290976018867 0.21069573875807043 0.0
8.876663735288869 0.19944540406264136 0.0
1.1233350732793665 0.18417760592071705 0.0
7.090880438832715 0.1886636626640102 0.0
2.9089430480252716 0.20172350799641342 0.0
6.4910762515740945 0.21122091188992373 0.0
3.508532326678271 0.17382374028883313 0.0
1.7133214029161359 0.17108598671168818 0.0
8.286672452454034 0.2051898302297709 0.0
4.1081227290470315 0.19726897147668498 0.0
8.577560101844966 0.8500737650178603 0.0
1.4224373956073961 0.8070954364925378 0.0
8.923332976682753 0.8310318380872046 0.0
1.076666070568201 0.8215679761202217 0.0
0.8418681022493835 0.8349553730287284 0.0
9.158131416743064 0.8148638931335949 0.0
8.345850371736866 0.8495043008763619 0.0
1.6541447900344692 0.8099282420457988 0.0
5.592449090371534 0.4959718524447604 0.0
5.0052651405437025 0.5037506988990338 0.0
7.789405108129764 0.8242763914625638 0.0
2.2105728177945103 0.8545149235619206 0.0
7.776865077029099 0.5470582518655912 0.0
2.223088673362982 0.5569034205156947 0.0
2.815276574398377 0.8581638935737407 0.0
7.184590602275841 0.8308574486570451 0.0
3.4120552053122744 0.8217818743201819 0.0
6.587034817300032 0.8655631641117651 0.0
4.009202335039775 0.8429886094355677 0.0
5.984832283938749 0.8423197192817828 0.0
4.611344717666379 0.866468351872873 0.0
7.175166163371202 0.5557061586287028 0.0
2.824567023823485 0.5644942058938903 0.0
6.575204015962338 0.5616628717166334 0.0
3.4230889069283426 0.5539170279940475 0.0
5.978030920105976 0.5301832226102341 0.0
4.022408006441922 0.5556391106994034 0.0
4.619575537815573 0.5384337620974647 0.0
8.548997314231157 0.5471898001498134 0.0
[...]
POINT_DATA 386
VECTORS vector double
1.0 0.0 0.0
0.0 0.0 0.0
0.0 0.0 0.0
0.0 0.0 0.0
0.0 0.0 0.0
1.0 0.0 0.0
0.0 0.0 0.0
0.0 0.0 0.0
0.0 0.0 0.0
0.0 0.0 0.0
0.0 0.0 0.0
0.0 0.0 0.0
0.0 0.0 0.0
0.0 0.0 0.0
0.0 0.0 0.0
0.0 0.0 0.0
0.0 0.0 0.0
0.0 0.0 0.0
0.0 0.0 0.0
0.0 0.0 0.0
0.0 0.0 0.0
0.0 0.0 0.0
0.0 0.0 0.0
0.0 0.0 0.0
0.0 0.0 0.0
0.0 0.0 0.0
0.0 0.0 0.0
0.0 0.0 0.0
0.0 0.0 0.0
0.0 0.0 0.0
0.0 0.0 0.0
0.0 0.0 0.0
0.0 0.0 0.0
0.0 0.0 0.0
0.0 0.0 0.0
0.0 0.0 0.0
0.0 0.0 0.0
0.0 0.0 0.0
0.0 0.0 0.0
0.0 0.0 0.0
0.0 0.0 0.0
0.0 0.0 0.0
0.0 0.0 0.0
0.0 0.0 0.0
0.0 0.0 0.0
0.0 0.0 0.0
0.0 0.0 0.0
0.0 0.0 0.0
0.0 0.0 0.0
0.0 0.0 0.0
0.0 0.0 0.0
0.0 0.0 0.0
0.0 0.0 0.0
0.0 0.0 0.0
0.890594280118 0.093672231365 0.0
1.40245114003 0.00115757306552 0.0
1.42542654088 -0.00578156852054 0.0
1.02682967248 -0.0854351028633 0.0
0.0 0.0 0.0
0.0 0.0 0.0
0.0 0.0 0.0
0.0 0.0 0.0
0.0 0.0 0.0
0.0 0.0 0.0
0.0 0.0 0.0
0.0 0.0 0.0
0.0 0.0 0.0
0.0 0.0 0.0
0.0 0.0 0.0
0.0 0.0 0.0
0.0 0.0 0.0
0.0 0.0 0.0
0.0 0.0 0.0
0.0 0.0 0.0
0.0 0.0 0.0
0.0 0.0 0.0
0.0 0.0 0.0
0.0 0.0 0.0
0.0 0.0 0.0
0.0 0.0 0.0
0.0 0.0 0.0
0.0 0.0 0.0
0.0 0.0 0.0
0.0 0.0 0.0
0.0 0.0 0.0
0.0 0.0 0.0
0.0 0.0 0.0
0.0 0.0 0.0
0.0 0.0 0.0
0.0 0.0 0.0
0.0 0.0 0.0
0.0 0.0 0.0
0.0 0.0 0.0
0.0 0.0 0.0
0.0 0.0 0.0
0.0 0.0 0.0
0.0 0.0 0.0
0.0 0.0 0.0
0.0 0.0 0.0
0.0 0.0 0.0
0.0 0.0 0.0
0.0 0.0 0.0
0.0 0.0 0.0
0.0 0.0 0.0
0.0 0.0 0.0
0.0 0.0 0.0
0.0 0.0 0.0
1.0 0.0 0.0
1.0 0.0 0.0
1.0 0.0 0.0
1.0 0.0 0.0
1.23908008354 -0.0528803310995 0.0
1.46824436846 -0.0391917550073 0.0
1.43858998923 -0.0157952220033 0.0
1.36139511566 -0.035384642025 0.0
1.43853390047 0.0339655202273 0.0
1.41422181959 0.0303092597689 0.0
1.38915295975 0.0191088038584 0.0
1.42930445336 -0.000806758940262 0.0
1.40776821801 -0.033039912584 0.0
1.41036537883 -0.0274244556791 0.0
1.42593507036 -0.00140222896807 0.0
1.40682620889 0.0205433153472 0.0
1.41118539874 0.0262377578657 0.0
1.46181858201 0.0235320750742 0.0
1.45921509932 -0.0245563992389 0.0
1.49773424015 -0.0222024692818 0.0
1.27252558933 0.00145150857416 0.0
1.11776480376 -0.105005445832 0.0
1.34536411117 0.012377855735 0.0
1.36441401077 0.0285417828137 0.0
1.3177346736 0.0254329718673 0.0
1.37621620659 -0.0242664265951 0.0
1.3741979189 -0.00778755967785 0.0
1.36925548409 0.0274668192359 0.0
1.36746806071 0.0489193903319 0.0
1.39115093122 -0.01122863511 0.0
1.36618565918 -0.0320142860076 0.0
1.31924323359 -0.045953366142 0.0
1.24776353403 -0.0660186080268 0.0
1.35681229127 0.025422024811 0.0
1.36965416872 0.0129771419584 0.0
1.302367184 0.0129983790455 0.0
1.27697594195 0.000797667899448 0.0
1.34659381834 -0.0175877451722 0.0
1.37828475304 -0.0471383327465 0.0
1.24367003825 -0.000677246937168 0.0
1.24538079429 0.0313677606565 0.0
1.26872848741 0.0423139731923 0.0
1.24609873513 0.0480131349882 0.0
1.28372074711 0.0253115227231 0.0
1.26017423971 -0.0271643574002 0.0
1.22231301491 -0.0112931749703 0.0
1.2129809585 -0.0137492726909 0.0
1.26063733902 -0.0340184688466 0.0
1.15995476948 0.0962636439153 0.0
1.2858450905 -0.0192797662174 0.0
1.26264066709 0.00531640674062 0.0
1.28496042221 -0.0388468917703 0.0
1.27073928968 0.0218084291359 0.0
1.24283292709 -0.054657079598 0.0
1.15368249562 -0.0798274739934 0.0
1.20877936734 -0.037020574062 0.0
1.15885456611 -0.0194557750177 0.0
1.1586967679 -0.0480523535876 0.0
1.21322252169 -0.00910237620331 0.0
1.21033939456 -0.0106873597884 0.0
1.22542585436 0.00852400538959 0.0
1.1021390699 -0.0382663243276 0.0
1.15327812188 0.0344001100553 0.0
1.15597739807 0.0302120212377 0.0
1.19512632476 0.0471316467816 0.0
1.21938250771 0.0336599668701 0.0
1.18656226494 0.00196051108396 0.0
1.2416260259 0.00928781812742 0.0
1.22246500985 -0.0242581437801 0.0
1.20201243476 -0.0467920286789 0.0
1.19611116104 0.0342318226147 0.0
1.19981657264 -0.00123294754322 0.0
0.806981512181 0.0144242017219 0.0
1.06926195607 0.0113108628127 0.0
0.939835286613 -0.0545767679765 0.0
0.930433927366 -0.0523337125963 0.0
1.05469716133 0.0162546101 0.0
0.821128553587 0.0223684614749 0.0
0.845167714573 0.0367324073192 0.0
0.901466233734 0.0436186490768 0.0
0.744361407191 -0.0332261498682 0.0
0.834322791271 -0.0270886858341 0.0
1.21471989631 0.0286728344347 0.0
1.06787552056 -0.0427745107519 0.0
0.950835252419 0.0408331826693 0.0
1.19719436306 -0.0258857338988 0.0
1.01405304586 0.00260087276832 0.0
1.47632759513 -0.0115102523298 0.0
0.739311943523 -0.0118318445297 0.0
1.22493680101 0.0580784915185 0.0
1.4848682372 -0.0232116545246 0.0
1.13845712055 -0.0202071712635 0.0
0.935326219963 -0.015540524446 0.0
0.912327429205 -0.0760313257809 0.0
0.816437122074 -0.0488837844721 0.0
1.08057598351 -0.122697368305 0.0
0.855594401265 0.0101412215359 0.0
1.07445567941 0.0550620032999 0.0
0.961701205266 -0.0558923787027 0.0
0.989906743877 -0.0238886857148 0.0
0.901953397691 -0.0554302441861 0.0
0.978250353697 -0.0369621508298 0.0
1.06827082511 0.00111101526784 0.0
0.840430451495 0.000786799794116 0.0
0.890860541047 0.0407416756462 0.0
1.03747819061 0.0335571343611 0.0
0.989394144096 0.0628386407042 0.0
0.734926338179 -0.00872426756066 0.0
0.996108412961 -0.0182980473423 0.0
0.8445041463 -0.0379018664873 0.0
0.923613047771 -0.0857557339397 0.0
0.885006756582 -0.0675061797535 0.0
0.927956252398 -0.067511842647 0.0
0.730555091478 0.0349774581704 0.0
0.968582447545 0.0118718718878 0.0
1.46629176833 -0.00888528116767 0.0
1.47072740217 -0.020900545547 0.0
0.895441383187 0.0348154884304 0.0
0.708814368165 0.0377464726245 0.0
1.49163608935 0.0205520305814 0.0
1.45860299236 0.0329294774472 0.0
0.7392392319 -0.0345883622068 0.0
0.896888638329 -0.0501903378722 0.0
0.9613008816 -0.028285598864 0.0
0.684331664252 9.38664022716e-05 0.0
0.776154769138 0.0422747479623 0.0
0.814523718074 0.0518903850526 0.0
0.699565901266 -0.014264591851 0.0
1.48388204522 -0.0303583919359 0.0
1.46913998082 -0.0318917402215 0.0
1.47089536812 0.0146658280077 0.0
1.49080233456 -0.0228646930888 0.0
1.47470880074 0.0345843063247 0.0
1.47985253479 0.0235166502987 0.0
1.47680495148 -0.00970096523918 0.0
1.47594490736 -0.000116907671943 0.0
1.41965337884 -0.000652798698154 0.0
1.35173198525 -0.0446695555978 0.0
1.31734118943 -0.04733469727 0.0
1.48767601443 -0.0356449038074 0.0
1.4851080131 -0.0526187562644 0.0
1.46185996823 0.0183042523655 0.0
1.44773231767 0.0195006087337 0.0
1.49215716051 0.0230919651273 0.0
1.45133017563 0.0483194866212 0.0
1.47438540086 0.0273926931014 0.0
1.4691743259 0.0288662130285 0.0
1.4550059913 0.0309274149074 0.0
1.46422671329 -0.0220253048093 0.0
1.45537870853 -0.0300715256454 0.0
1.44261193316 0.0140395262069 0.0
1.47216138646 -0.0310791681583 0.0
0.677722734566 0.010201743982 0.0
0.872103128521 0.0461239245116 0.0
0.725127641374 0.0397647714633 0.0
0.818130068477 0.0663099132272 0.0
0.828663024029 0.0322838314159 0.0
0.905607108754 -0.0478692157568 0.0
0.732142844914 -0.0300984243688 0.0
0.682274696931 -0.00496318392254 0.0
0.960068104364 -0.034557093239 0.0
0.946879130649 -0.0121295846398 0.0
0.806010857275 -0.0348671670392 0.0
1.19212113734 0.253935887149 0.0
0.831813036162 0.0132941501748 0.0
0.854145582961 -0.0377026993659 0.0
1.08030033458 -0.0522217056141 0.0
1.34417544154 -0.0388178223269 0.0
1.19316075481 -0.102162948701 0.0
0.768000532122 -0.000764824126086 0.0
0.97207098825 0.0112666773425 0.0
0.804306842094 0.0510493728817 0.0
0.91357648975 0.0538393861015 0.0
0.851216583388 0.0791623038692 0.0
0.940328720423 -7.66397887711e-05 0.0
0.736061111017 -0.0169426802823 0.0
0.962498777095 -0.0307899739684 0.0
0.94574114443 -0.0247457100738 0.0
0.739174200236 -0.0369206895014 0.0
1.41295771421 -0.0233152926406 0.0
1.36175764142 -0.0100337775281 0.0
0.813087028418 0.0322017719416 0.0
1.41800078786 0.0349431986403 0.0
1.39550720835 0.0297413365077 0.0
0.845476375596 -0.0492987502222 0.0
0.942332631698 0.045989543352 0.0
1.43639566317 0.0262970517302 0.0
1.41322894938 0.0107654776501 0.0
0.967094910979 0.00976339898209 0.0
0.770434999385 -0.00413313796136 0.0
1.43187246483 -0.0314146262661 0.0
1.42590486222 -0.0267878225546 0.0
1.42981335014 0.0256347675139 0.0
1.41809017071 -0.013433241244 0.0
0.821838613374 -0.0367096742367 0.0
1.42751853854 0.0226088873167 0.0
1.3503169853 0.0482631539007 0.0
1.37478314934 -0.0531284051105 0.0
1.27716498853 0.00776568310981 0.0
1.2743822773 -0.0344329300184 0.0
1.2573160404 -0.0162674909232 0.0
1.26681159594 0.0427285774266 0.0
1.28643773664 0.0308470362357 0.0
1.273964876 0.00624058359107 0.0
1.24201431421 0.0388135343906 0.0
1.25448284886 0.00625367941238 0.0
1.2760339948 -0.00689675116033 0.0
1.23840911747 -0.0252486832265 0.0
1.27164988077 -0.0447447002077 0.0
1.29370825878 -0.035387130209 0.0
1.24968293637 -0.0479563082007 0.0
1.25908655757 0.0185447250344 0.0
1.27257155884 0.0260113480262 0.0
1.29107907209 0.0393484741151 0.0
1.28766348521 0.0224275515904 0.0
1.27977291312 0.019545983604 0.0
1.22005657648 -0.077728535401 0.0
1.32998246451 -0.0303903906566 0.0
1.26230902986 0.0102557827292 0.0
1.27751699114 0.0374280085084 0.0
1.26844394415 -0.0450278225519 0.0
1.24419787399 -0.0205218077659 0.0
1.2604661889 0.0408741676719 0.0
1.35598136069 -0.0258234015852 0.0
1.23494820114 8.72164466752e-05 0.0
1.27701797912 -0.0117932907036 0.0
1.35541804142 -0.0257081273307 0.0
1.36349569432 -0.019119301968 0.0
1.0099068613 -0.133415434186 0.0
1.31425799901 0.00305061125628 0.0
1.28768901392 -0.0178131517246 0.0
1.47872420604 -0.0337666953023 0.0
1.48216179067 -0.0100739459275 0.0
1.31149724934 -0.00172854669423 0.0
1.04286586697 0.0994228073206 0.0
0.622976736892 -0.00785597779698 0.0
1.26028647807 0.172649333827 0.0
1.03022956323 -0.0772410219722 0.0
1.30005509966 -0.00241569134633 0.0
1.36348022224 -0.0347456432292 0.0
1.29900090391 -0.000130780635362 0.0
1.46743276603 -0.0148645380307 0.0
1.38792891121 0.0162254989391 0.0
0.811575212443 0.134569570488 0.0
0.790684428532 0.0575674965743 0.0
0.980178234545 -0.104276209556 0.0
0.967718598103 -0.0979049794217 0.0
1.45773313572 0.0224777401274 0.0
1.4325798055 0.0552737718811 0.0
0.794076149289 0.0592056564159 0.0
0.57298492212 0.0213599871681 0.0
0.796194392552 0.0231757644143 0.0
1.47740328806 0.0256101025094 0.0
1.45360414374 -0.0271234441655 0.0
1.45301764477 -0.0253561377246 0.0
1.42972698626 0.0375340215609 0.0
1.46444848112 -0.0186178366323 0.0
1.47082003449 -0.0354470602794 0.0
1.45629970964 0.0227579826237 0.0
1.47073255361 0.0301880418172 0.0
0.619172660244 -0.0262385523523 0.0
0.700964220879 -0.0510070776179 0.0
1.47619817785 0.0277183611749 0.0
0.862546778619 0.0150637049242 0.0
0.541904262896 -0.0160372491572 0.0
0.66477773471 0.0524853843616 0.0
0.729816002654 0.0435256448739 0.0
0.671743084493 -0.0393343614562 0.0
0.79531047917 -0.0546467394275 0.0
0.571507756489 -0.0174376602589 0.0
0.810539224289 -0.0621001338462 0.0
0.644871716424 0.0171827617199 0.0
0.791943250796 -0.0447785218348 0.0
0.554716797201 0.037167617163 0.0
0.717086644537 0.0371090299583 0.0
0.517877930047 0.074614563401 0.0
1.09283936051 0.0684255094708 0.0
0.951840568058 -0.0410298491467 0.0
0.494717742658 0.00666245281884 0.0

SCALARS scalar1 double
LOOKUP_TABLE default
4.32099615025
7.48416834274
3.88383751162
4.66606065276
-5.90721069392
-2.44796126901
8.16922886366
6.9410328747
5.15066300284
5.07913440634
5.80728856744
7.24982588981
8.50821959571
7.85687734704
6.16605441172
4.62989220132
3.95364255536
3.87724989933
4.12164135739
5.24040723216
6.48718718785
8.02454061656
8.12355530733
7.28069709664
5.90360750816
4.68218362426
3.92648091863
3.75365196166
4.31714898813
4.96973193199
7.53327491891
5.87939486015
10.0771194195
7.58383235047
6.5258153494
4.92582900769
4.02930517595
3.87240123429
3.99512986505
4.98844573117
6.22861050577
7.77506504773
8.09931716942
7.36794466818
6.02556492934
4.83762599199
3.6755024673
3.8979340688
4.63715371444
5.72627155819
7.40482356666
8.16480650963
8.43656574166
6.6452695781
3.69757365641
1.34348639157
-0.971403740904
-3.13922545246
-4.77441711973
-4.28383796211
-3.6191453866
-3.88371984599
-5.43532611316
-6.66895579172
-8.70324297325
-7.94710697119
-7.055510038
-6.02031566781
-4.7458125882
-3.79460122148
-3.86996661108
-4.56739126429
-5.22852073751
-7.03284179939
-7.8583385621
-8.08980622672
-7.79867170029
-7.69155803986
-3.92109895576
-4.20056302101
-4.16042986208
-4.64799156464
-5.58185393183
-5.93750150226
-10.1617368954
-8.73287618542
-7.03154970909
-5.85018039603
-4.58167140998
-3.81898039861
-4.09987881317
-4.42709882758
-5.23964349344
-6.82285880897
-8.6480649323
-8.10081731678
-7.25604281488
-6.1742285447
-4.77597682772
-4.53974291498
-4.60700906555
-4.88603136761
-6.58788413232
-8.46487981844
-11.0495735545
-13.8620353269
-13.9872854452
3.32641264837
0.0308425953731
-0.0324708590536
-2.12141830037
0.0958138498859
0.54708815815
0.784514738338
0.629947433985
0.826856464879
0.807538048623
1.10260180783
1.091794809
1.14323353152
1.10316552635
1.13666255311
0.992755134938
1.05003281896
0.264928540658
0.376648609501
0.213848334106
2.47616622044
-0.715842650481
-1.88009131659
-1.4427847989
-1.75632479329
-1.46756977488
-1.54541066622
-1.49734710092
-1.32945859381
-1.45817329799
-1.4937344212
1.91247984421
1.10042264229
-1.04621714537
-1.65806353953
2.05145003307
1.85680687474
-0.200311692063
-1.61863037674
2.15699021673
2.45850381495
2.15647412604
2.1730776728
2.33976043027
2.273449236
2.1883469018
2.18174072165
2.24911419988
0.971465067511
-2.14722598296
-2.02943215888
-2.05298371051
2.0768420792
2.16841335043
1.32654234171
2.66839122649
2.6598243081
2.21891683596
-2.71463512329
-2.04315572179
-1.85728331671
-3.07777120617
2.90224704958
2.73419666684
-2.50580297673
-2.27315900959
-2.47339371556
-2.43847440666
-2.61495998188
-2.57930851624
-2.5857355105
-2.39638435923
3.83329729712
3.21023161548
3.40542755074
3.45987737989
3.2617793639
3.89625520426
3.85456122984
3.74226409762
3.97625125092
-3.86712097385
-2.5628056226
-2.94377776076
-2.96060110614
2.19407583517
0.0360480778921
0.0976107641169
-4.15014495181
-2.43708832645
0.168774966519
0.0395571202916
3.52943124802
3.65640504667
3.87557636145
-0.0956577767586
-3.68620117266
-3.16640356734
-3.59905903378
-3.41367684869
-3.71395108826
-3.63263753867
-3.23960246251
-3.81561740084
-3.75275054051
-3.27163369234
-3.31270076109
3.95889350169
3.15204990426
3.6333528911
3.15638813403
3.32702772983
3.4059407293
4.05812648867
3.31645591552
0.0145267524981
0.0622683400263
3.72525518127
4.01579234995
0.557803238927
0.625803259011
3.94372853048
3.61518446799
3.51688627932
4.06732740274
4.03093673478
4.06392040623
4.09613766533
0.622840693785
0.712672957279
0.59857742034
0.632879077135
0.292010507051
0.611825629812
0.408958265159
0.487984964863
0.48835044415
0.33891709488
0.22764705142
0.364744710631
0.297722421915
0.550357542573
0.435440580742
0.429203450964
0.582871134181
0.527268423481
0.696126039193
0.474133530068
0.715041846661
0.717284217943
0.735822458937
0.678806425865
4.07197331667
3.81479797551
4.16576612918
3.81933378337
3.945916571
3.588095815
3.99115813193
4.02350917047
3.51137109566
-3.52678056202
-3.75710338812
0.279539850267
-3.98210988154
-3.89098638297
-3.11678733197
1.99584946013
-0.278995946015
-4.31178039295
-3.63372708181
-3.87319278476
-3.72733484798
-3.83478028715
-3.71094509831
-4.11278673347
-3.6965641231
-3.73024755292
-4.13795165799
-1.29798175425
-0.241192554252
-3.85523287998
-1.21450455838
-0.81452983135
-3.79128706684
3.5390415161
-0.953437895207
-1.09764584178
3.46477534289
-3.94962179968
-1.04232378072
-1.10638459506
-1.13420548451
-1.05030836899
3.83027144271
-1.11027892719
-1.55005065725
-1.58498801533
1.92278471138
1.67004792618
2.08252290204
2.40757332626
2.13377980041
2.31850400174
2.21100669691
2.26864471776
2.33892433363
2.18829332411
2.22612476514
1.84196387509
1.21649722364
2.29112033162
2.04105500757
2.15074685574
1.83513071126
2.01100844513
0.825089216676
1.80775223866
2.40128447705
2.19057791489
2.25153374502
2.20595745613
0.373606218271
-1.66909744835
2.28898892039
2.31648246836
-1.38503796327
-1.41494258519
3.6065491311
2.07055540163
2.02670849497
0.714575403499
0.671314077867
-1.97098676997
1.35498999638
-4.49395204762
-3.03761155404
-1.24233023498
2.38905900162
-1.56011570714
0.0981925645147
-0.867496974026
-0.188918569299
-3.93400914516
4.13879491804
3.94824776195
-3.99220647433
-0.766060256917
-0.538625505521
-4.11136666847
-4.26317850912
-4.00491978344
-0.557530582485
-0.664668330821
-1.16685683282
-1.14660196295
-0.626745113079
-0.664104066623
-0.653193601595
-0.780779442456
-4.38289439425
-4.28669990563
-0.792352327722
-4.04343148912
-4.39416485848
-4.33414997895
-4.15803932494
4.41796627235
4.05782276749
4.30336739149
3.95713530018
-4.60048704757
-4.1422980362
4.50411551422
4.23352529871
4.58706299335
1.46384873765
-4.26964432728
-4.40498731855

SCALARS scalar2 double
LOOKUP_TABLE default
4.32099615025
7.48416834274
3.88383751162
4.66606065276
-5.90721069392
-2.44796126901
8.16922886366
6.9410328747
5.15066300284
5.07913440634
5.80728856744
7.24982588981
8.50821959571
7.85687734704
6.16605441172
4.62989220132
3.95364255536
3.87724989933
4.12164135739
5.24040723216
6.48718718785
8.02454061656
8.12355530733
7.28069709664
5.90360750816
4.68218362426
3.92648091863
3.75365196166
4.31714898813
4.96973193199
7.53327491891
5.87939486015
10.0771194195
7.58383235047
6.5258153494
4.92582900769
4.02930517595
3.87240123429
3.99512986505
4.98844573117
6.22861050577
7.77506504773
8.09931716942
7.36794466818
6.02556492934
4.83762599199
3.6755024673
3.8979340688
4.63715371444
5.72627155819
7.40482356666
8.16480650963
8.43656574166
6.6452695781
3.69757365641
1.34348639157
-0.971403740904
-3.13922545246
-4.77441711973
-4.28383796211
-3.6191453866
-3.88371984599
-5.43532611316
-6.66895579172
-8.70324297325
-7.94710697119
-7.055510038
-6.02031566781
-4.7458125882
-3.79460122148
-3.86996661108
-4.56739126429
-5.22852073751
-7.03284179939
-7.8583385621
-8.08980622672
-7.79867170029
-7.69155803986
-3.92109895576
-4.20056302101
-4.16042986208
-4.64799156464
-5.58185393183
-5.93750150226
-10.1617368954
-8.73287618542
-7.03154970909
-5.85018039603
-4.58167140998
-3.81898039861
-4.09987881317
-4.42709882758
-5.23964349344
-6.82285880897
-8.6480649323
-8.10081731678
-7.25604281488
-6.1742285447
-4.77597682772
-4.53974291498
-4.60700906555
-4.88603136761
-6.58788413232
-8.46487981844
-11.0495735545
-13.8620353269
-13.9872854452
3.32641264837
0.0308425953731
-0.0324708590536
-2.12141830037
0.0958138498859
0.54708815815
0.784514738338
0.629947433985
0.826856464879
0.807538048623
1.10260180783
1.091794809
1.14323353152
1.10316552635
1.13666255311
0.992755134938
1.05003281896
0.264928540658
0.376648609501
0.213848334106
2.47616622044
-0.715842650481
-1.88009131659
-1.4427847989
-1.75632479329
-1.46756977488
-1.54541066622
-1.49734710092
-1.32945859381
-1.45817329799
-1.4937344212
1.91247984421
1.10042264229
-1.04621714537
-1.65806353953
2.05145003307
1.85680687474
-0.200311692063
-1.61863037674
2.15699021673
2.45850381495
2.15647412604
2.1730776728
2.33976043027
2.273449236
2.1883469018
2.18174072165
2.24911419988
0.971465067511
-2.14722598296
-2.02943215888
-2.05298371051
2.0768420792
2.16841335043
1.32654234171
2.66839122649
2.6598243081
2.21891683596
-2.71463512329
-2.04315572179
-1.85728331671
-3.07777120617
2.90224704958
2.73419666684
-2.50580297673
-2.27315900959
-2.47339371556
-2.43847440666
-2.61495998188
-2.57930851624
-2.5857355105
-2.39638435923
3.83329729712
3.21023161548
3.40542755074
3.45987737989
3.2617793639
3.89625520426
3.85456122984
3.74226409762
3.97625125092
-3.86712097385
-2.5628056226
-2.94377776076
-2.96060110614
2.19407583517
0.0360480778921
0.0976107641169
-4.15014495181
-2.43708832645
0.168774966519
0.0395571202916
3.52943124802
3.65640504667
3.87557636145
-0.0956577767586
-3.68620117266
-3.16640356734
-3.59905903378
-3.41367684869
-3.71395108826
-3.63263753867
-3.23960246251
-3.81561740084
-3.75275054051
-3.27163369234
-3.31270076109
3.95889350169
3.15204990426
3.6333528911
3.15638813403
3.32702772983
3.4059407293
4.05812648867
3.31645591552
0.0145267524981
0.0622683400263
3.72525518127
4.01579234995