# vtk DataFile Version 2.0
2D Simulation Python
ASCII
DATASET UNSTRUCTURED_GRID
FIELD FieldData 1
NODES 1 2 int
386 659

POINTS 386 double
0.0 1.0 0.0
1.725 0.9617718105909085 0.0
8.275 1.0382281894090915 0.0
10.0 1.0 0.0
10.0 -6.156715217258989e-17 0.0
0.0 0.0 0.0
0.1916666666663293 1.0284751644347423 0.0
0.3833333333324708 1.046934257472002 0.0
0.574999999998553 1.0488843370177567 0.0
0.7666666666645966 1.0336394672276223 0.0
0.9583333333312576 1.0065619948093718 0.0
1.149999999998384 0.9771763563163223 0.0
1.341666666665662 0.9558188802316608 0.0
1.533333333332819 0.9500020079963036 0.0
1.92348484848444 0.9880313539638408 0.0
2.121969696968978 1.018795759981857 0.0
2.320454545453434 1.0424856550842423 0.0
2.518939393937826 1.0501844313948985 0.0
2.717424242422235 1.038994356813662 0.0
2.915909090906411 1.0131272485189011 0.0
3.1143939393908 0.9823191927429534 0.0
3.312878787875129 0.9581659923204311 0.0
3.511363636359531 0.9497586379960987 0.0
3.709848484843827 0.9602615625992937 0.0
3.90833333332816 0.9857215844112186 0.0
4.106818181812215 1.0165558399352788 0.0
4.305303030296804 1.0411586650489124 0.0
4.503787878781365 1.0502698353721969 0.0
4.702272727265711 1.0404600097149914 0.0
4.900757575750005 1.0154214952125051 0.0
5.099242424235156 0.9845785047897259 0.0
5.297727272720327 0.9595399902863169 0.0
5.496212121205663 0.9497301646278284 0.0
5.694696969690998 0.9588413349499819 0.0
5.89318181817668 0.9834441600630663 0.0
6.09166666666213 1.0142784155873106 0.0
6.290151515147423 1.0397384373998602 0.0
6.488636363633031 1.0502413620038602 0.0
6.687121212118713 1.0418340076801087 0.0
6.885606060604342 1.0176808072577646 0.0
7.084090909089381 0.9868727514817407 0.0
7.282575757574369 0.9610056431866771 0.0
7.481060606059355 0.9498155686051268 0.0
7.679545454544343 0.9575143449155704 0.0
7.878030303029329 0.9812042400178944 0.0
8.076515151514705 1.011968646036028 0.0
8.46666666666447 1.0499979920036522 0.0
8.658333333329285 1.04418111976872 0.0
8.84999999999549 1.0228236436845408 0.0
9.041666666661694 0.9934380051917319 0.0
9.233333333327899 0.9663605327732583 0.0
9.42499999999549 0.9511156629824612 0.0
9.616666666663775 0.9530657425277856 0.0
9.808333333331985 0.9715248355650378 0.0
10.0 0.7999999999999998 0.0
10.0 0.6000000000013869 0.0
10.0 0.4000000000016644 0.0
10.0 0.2000000000008322 0.0
9.799999999999999 -0.0295499601173912 0.0
9.6 -0.047812839836142484 0.0
9.399999999999999 -0.04781283983614239 0.0
9.2 -0.02954996011739081 0.0
8.999999999999998 4.1262439258831947e-16 0.0
8.799999999999997 0.029549960117391454 0.0
8.599999999999998 0.04781283983614259 0.0
8.399999999999997 0.0478128398361423 0.0
8.199999999999998 0.02954996011739068 0.0
7.999999999999997 -4.0646767737106034e-16 0.0
7.799999999999997 -0.029549960117391454 0.0
7.599999999999998 -0.04781283983614259 0.0
7.399999999999997 -0.0478128398361423 0.0
7.199999999999998 -0.029549960117390826 0.0
6.999999999999997 4.0031096215380145e-16 0.0
6.799999999999997 0.029549960117391465 0.0
6.599999999999998 0.04781283983614259 0.0
6.399999999999997 0.04781283983614227 0.0
6.199999999999998 0.029549960117390812 0.0
5.999999999999997 -3.9415424693654247e-16 0.0
5.799999999999998 -0.029549960117391322 0.0
5.599999999999998 -0.04781283983614259 0.0
5.399999999999999 -0.047812839836142436 0.0
5.199999999999998 -0.029549960117390812 0.0
4.999999999999999 2.0939055390278928e-16 0.0
4.799999999999999 0.02954996011739114 0.0
4.599999999999999 0.04781283983614256 0.0
4.399999999999999 0.04781283983614237 0.0
4.199999999999999 0.029549960117390906 0.0
3.999999999999999 -2.0323383868553017e-16 0.0
3.799999999999999 -0.029549960117391142 0.0
3.599999999999999 -0.047812839836142526 0.0
3.399999999999998 -0.04781283983614237 0.0
3.199999999999998 -0.029549960117390688 0.0
2.999999999999999 1.9707712346827124e-16 0.0
2.799999999999998 0.029549960117391225 0.0
2.599999999999998 0.047812839836142595 0.0
2.399999999999999 0.04781283983614242 0.0
2.199999999999999 0.029549960117390833 0.0
1.999999999999998 -3.2487564161338277e-16 0.0
1.799999999999999 -0.029549960117391166 0.0
1.6 -0.04781283983614246 0.0
1.4 -0.04781283983614246 0.0
1.199999999999999 -0.02954996011739086 0.0
0.9999999999999982 2.9639305416906215e-16 0.0
0.7999999999999989 0.029549960117391166 0.0
0.6000000000000014 0.0478128398361424 0.0
0.3999999999999986 0.0478128398361424 0.0
0.1999999999999993 0.0295499601173909 0.0
0.0 0.1999999999995579 0.0
0.0 0.3999999999989749 0.0
0.0 0.5999999999989468 0.0
0.0 0.7999999999994734 0.0
0.6588466708533373 0.5517630065469834 0.0
9.341152800655266 0.5401753313901321 0.0
8.741432846161088 0.5723370197383432 0.0
1.2585641954966962 0.5625865695250495 0.0
8.162841452661025 0.5760852626931021 0.0
1.8371433468742777 0.5695216743622629 0.0
2.4304413582510067 0.606273041833493 0.0
7.569477445456251 0.5893368366292078 0.0
3.0304922442869544 0.6016239114875895 0.0
6.969026186386573 0.6008201684051668 0.0
3.628663897129476 0.5931489653880604 0.0
6.36798267085259 0.5984631734060694 0.0
4.229400770527551 0.5966059704412484 0.0
5.795134236087446 0.5226988858176808 0.0
4.802478518198035 0.5321736216967993 0.0
5.298820266636513 0.5122282500880992 0.0
9.677454509947035 0.6908182022906292 0.0
0.3225453486329932 0.7101956744411215 0.0
4.530525393951458 0.3488005202564427 0.0
3.918822761278299 0.3705118048904169 0.0
6.067964737821175 0.338416893276174 0.0
3.3194115839703167 0.3683460009908853 0.0
6.679655354871452 0.38013541916427085 0.0
7.878986046567949 0.3632530379905945 0.0
2.1209823964699566 0.3716100739639145 0.0
2.7201102927439655 0.38262827230601537 0.0
7.279714264928107 0.36781695445085827 0.0
9.03727024332578 0.6713361129246928 0.0
0.9627286477149954 0.6737442517706694 0.0
1.5320838454642847 0.35096229574396437 0.0
8.467910222664145 0.36972862943655305 0.0
8.458294144997318 0.690211311851944 0.0
1.5417001657761231 0.6697919014919327 0.0
0.9793998657759375 0.36565629579415215 0.0
9.02059889367437 0.36499122763584346 0.0
4.527199774320291 0.7019085958486458 0.0
3.9214025958053895 0.6986988603703436 0.0
6.0696856609702 0.6927790500892045 0.0
2.1183769977200106 0.6962521345442676 0.0
7.8815945018725415 0.6875725803996122 0.0
3.3233611514032413 0.695443060180686 0.0
6.675556619072678 0.7108838367633743 0.0
2.725371162203996 0.712901743673959 0.0
7.27446275721881 0.6946194731916625 0.0
0.33283957758781113 0.31304312891062636 0.0
9.667160268054422 0.2942219561747902 0.0
5.581324220173142 0.30882564343630325 0.0
5.01722060702329 0.3205769592048392 0.0
5.5094577277151044 0.6809551932711532 0.0
5.087392121724378 0.6896478492466369 0.0
0.6619005083593202 0.7464551211711417 0.0
9.33809909564458 0.7246523201017997 0.0
8.747624312684305 0.7490116164376106 0.0
1.2523735173012926 0.7310842907087808 0.0
8.670387986984561 0.2866017092890292 0.0
1.329609117855818 0.2656002164015571 0.0
0.6804015928151386 0.2481005767046347 0.0
9.319598014417037 0.2257488683159537 0.0
8.169907998883785 0.7513067448075166 0.0
1.8300810417158795 0.7384728912199837 0.0
8.082241619078383 0.28122080882552797 0.0
1.917743129606034 0.27505538552925146 0.0
7.485180593697307 0.2730079484056381 0.0
2.514735565895359 0.29813270589797713 0.0
6.885160964682768 0.2900873053207608 0.0
3.114404866531652 0.28361102451602976 0.0
6.28493523205551 0.28014974507674917 0.0
3.713789042658726 0.27668065417752463 0.0
2.422449307606492 0.8333375355111504 0.0
7.5775039651850795 0.79078498528619 0.0
3.0216051097014107 0.813798639627935 0.0
6.978106161357585 0.8149543095264091 0.0
3.6184596482819673 0.7937847385375123 0.0
6.379474969549903 0.8300947704543842 0.0
4.216884896358363 0.8232263720435766 0.0
5.793598400344531 0.8280312977791321 0.0
4.802574981974631 0.8573264513428339 0.0
5.299579324151042 0.16577274808130454 0.0
4.313878967349266 0.28181489820819067 0.0
4.743204933394866 0.25000853152825986 0.0
5.855724986380713 0.22742540245787637 0.0
5.2983720663539975 0.7033774584505402 0.0
0.19483726739767665 0.5061183367866633 0.0
9.805162635967308 0.498148812674114 0.0
9.486963243616833 0.13999482823906712 0.0
0.5130365840852512 0.1846899657803942 0.0
9.568925521929481 0.5056950042509908 0.0
0.4310742141838027 0.5187246858455816 0.0
9.509138636397058 0.8136950124107376 0.0
0.4908612047843126 0.8590082896816367 0.0
9.823684716858072 0.8167288170465551 0.0
0.17631523658241913 0.8387503450145296 0.0
7.690675622828262 0.1747340726766528 0.0
2.3092909746212666 0.21069573518219017 0.0
8.876663736337782 0.19944540121921323 0.0
1.1233350721053446 0.1841776029057458 0.0
7.090880439725216 0.18866365988693162 0.0
2.908943046822878 0.20172350486146717 0.0
6.491076252171016 0.21122090958193915 0.0
3.5085323256994716 0.17382373756698696 0.0
1.713321401463461 0.17108598299643063 0.0
8.286672453717536 0.20518982676575936 0.0
4.108122728338275 0.19726896916607312 0.0
8.577560103120163 0.8500737615492728 0.0
1.4224373941657236 0.8070954327981864 0.0
8.923332977738113 0.8310318352289638 0.0
1.0766660693899814 0.8215679730929557 0.0
0.8418681013342648 0.8349553706734096 0.0
9.158131417567905 0.8148638909032748 0.0
8.345850373078967 0.8495042972064086 0.0
1.6541447884982534 0.8099282381163903 0.0
5.592449090587088 0.4959718490647986 0.0
5.005265140108124 0.5037506954999559 0.0
7.789405109303169 0.8242763881679007 0.0
2.210572816390139 0.8545149199738102 0.0
7.776865079291652 0.547058245501832 0.0
2.2230886706490884 0.5569034135799935 0.0
2.8152765732262957 0.858163890536228 0.0
7.184590603162209 0.8308574459533151 0.0
3.4120552043493855 0.8217818716822606 0.0
6.5870348179084655 0.8655631618497304 0.0
4.009202334324753 0.8429886071728164 0.0
5.98483228423997 0.8423197174327335 0.0
4.611344717253161 0.8664683500075289 0.0
7.175166165114961 0.5557061533021841 0.0
2.82456702151568 0.5644941999087898 0.0
6.575204017158669 0.5616628672634644 0.0
3.423088905032549 0.5539170227940323 0.0
5.978030920729606 0.5301832187998602 0.0
4.022408005036574 0.5556391062464165 0.0
4.619575536961747 0.538433758254086 0.0
8.54899731664612 0.5471897935773852 0.0
[...]
POINT_DATA 386
VECTORS vector double
1.0 0.0 0.0
0.0 0.0 0.0
0.0 0.0 0.0
0.0 0.0 0.0
0.0 0.0 0.0
1.0 0.0 0.0
0.0 0.0 0.0
0.0 0.0 0.0
0.0 0.0 0.0
0.0 0.0 0.0
0.0 0.0 0.0
0.0 0.0 0.0
0.0 0.0 0.0
0.0 0.0 0.0
0.0 0.0 0.0
0.0 0.0 0.0
0.0 0.0 0.0
0.0 0.0 0.0
0.0 0.0 0.0
0.0 0.0 0.0
0.0 0.0 0.0
0.0 0.0 0.0
0.0 0.0 0.0
0.0 0.0 0.0
0.0 0.0 0.0
0.0 0.0 0.0
0.0 0.0 0.0
0.0 0.0 0.0
0.0 0.0 0.0
0.0 0.0 0.0
0.0 0.0 0.0
0.0 0.0 0.0
0.0 0.0 0.0
0.0 0.0 0.0
0.0 0.0 0.0
0.0 0.0 0.0
0.0 0.0 0.0
0.0 0.0 0.0
0.0 0.0 0.0
0.0 0.0 0.0
0.0 0.0 0.0
0.0 0.0 0.0
0.0 0.0 0.0
0.0 0.0 0.0
0.0 0.0 0.0
0.0 0.0 0.0
0.0 0.0 0.0
0.0 0.0 0.0
0.0 0.0 0.0
0.0 0.0 0.0
0.0 0.0 0.0
0.0 0.0 0.0
0.0 0.0 0.0
0.0 0.0 0.0
0.890835144642 0.0936882644414 0.0
1.4026504268 0.00112615081293 0.0
1.42528356193 -0.00581205301215 0.0
1.02656024052 -0.0854213581295 0.0
0.0 0.0 0.0
0.0 0.0 0.0
0.0 0.0 0.0
0.0 0.0 0.0
0.0 0.0 0.0
0.0 0.0 0.0
0.0 0.0 0.0
0.0 0.0 0.0
0.0 0.0 0.0
0.0 0.0 0.0
0.0 0.0 0.0
0.0 0.0 0.0
0.0 0.0 0.0
0.0 0.0 0.0
0.0 0.0 0.0
0.0 0.0 0.0
0.0 0.0 0.0
0.0 0.0 0.0
0.0 0.0 0.0
0.0 0.0 0.0
0.0 0.0 0.0
0.0 0.0 0.0
0.0 0.0 0.0
0.0 0.0 0.0
0.0 0.0 0.0
0.0 0.0 0.0
0.0 0.0 0.0
0.0 0.0 0.0
0.0 0.0 0.0
0.0 0.0 0.0
0.0 0.0 0.0
0.0 0.0 0.0
0.0 0.0 0.0
0.0 0.0 0.0
0.0 0.0 0.0
0.0 0.0 0.0
0.0 0.0 0.0
0.0 0.0 0.0
0.0 0.0 0.0
0.0 0.0 0.0
0.0 0.0 0.0
0.0 0.0 0.0
0.0 0.0 0.0
0.0 0.0 0.0
0.0 0.0 0.0
0.0 0.0 0.0
0.0 0.0 0.0
0.0 0.0 0.0
0.0 0.0 0.0
1.0 0.0 0.0
1.0 0.0 0.0
1.0 0.0 0.0
1.0 0.0 0.0
1.23908012028 -0.0528803184615 0.0
1.46831034601 -0.0391853973647 0.0
1.43867593808 -0.0157824587563 0.0
1.36139521394 -0.0353845570263 0.0
1.43861765405 0.033984053498 0.0
1.41422200607 0.0303094838276 0.0
1.38915362988 0.0191093858755 0.0
1.42940124345 -0.00079749933858 0.0
1.40777006578 -0.0330383871463 0.0
1.41045170761 -0.0274171460886 0.0
1.4259393874 -0.00139874270315 0.0
1.40689015223 0.0205547371564 0.0
1.4111952341 0.0262446371227 0.0
1.46182693715 0.0235558417968 0.0
1.45922292461 -0.0245439301579 0.0
1.49774456013 -0.0221882278173 0.0
1.27280019234 0.00144874219983 0.0
1.11776493443 -0.10500547633 0.0
1.34534334801 0.0123851092342 0.0
1.3644044229 0.0285456249329 0.0
1.31764632459 0.0254461695532 0.0
1.37621194471 -0.024264465217 0.0
1.37409278622 -0.00777523812181 0.0
1.36909878973 0.0274798934488 0.0
1.36746753749 0.0489196605825 0.0
1.39114951476 -0.0112277568445 0.0
1.36605478117 -0.0319994618225 0.0
1.31948710035 -0.0459502414131 0.0
1.24776370235 -0.0660185784115 0.0
1.35681203629 0.0254221295828 0.0
1.3694721123 0.0129930767408 0.0
1.30259845259 0.013015761568 0.0
1.2769762279 0.000797767195071 0.0
1.34659368858 -0.0175877015242 0.0
1.37807072446 -0.0471165271995 0.0
1.24369624534 -0.000671296679622 0.0
1.2453928185 0.0313712905266 0.0
1.26883195586 0.0423303564114 0.0
1.24609942419 0.048013391221 0.0
1.28391587525 0.0253263721738 0.0
1.26017929892 -0.0271626951348 0.0
1.22245243078 -0.0112851342374 0.0
1.21298288988 -0.0137486271327 0.0
1.26080202651 -0.0340103913854 0.0
1.15995467021 0.0962636347129 0.0
1.28558329327 -0.0192771983814 0.0
1.2625725744 0.00532716355894 0.0
1.28491985677 -0.0388368617684 0.0
1.27079651764 0.0218201687965 0.0
1.24287573952 -0.0546462830435 0.0
1.15368264777 -0.0798274777278 0.0
1.2090557423 -0.0370255588213 0.0
1.15910413761 -0.019449138537 0.0
1.15869698559 -0.0480523121199 0.0
1.21297588177 -0.00909186000432 0.0
1.21033914284 -0.0106872834866 0.0
1.22542571067 0.0085240161006 0.0
1.10184997679 -0.0382508668742 0.0
1.15349789363 0.034416442753 0.0
1.15597786631 0.03021213436 0.0
1.19491791142 0.047133293764 0.0
1.21938196802 0.0336600975242 0.0
1.18638116079 0.0019632633855 0.0
1.2416246383 0.00928829072104 0.0
1.22231105789 -0.0242516816966 0.0
1.20200856744 -0.0467907729319 0.0
1.19599263127 0.0342341994256 0.0
1.1998070592 -0.00123058303279 0.0
0.8069824329 0.0144243494829 0.0
1.06943562122 0.0113168739369 0.0
0.939838087386 -0.0545764807067 0.0
0.930559701228 -0.0523364030073 0.0
1.0547053016 0.0162557923279 0.0
0.821222470295 0.0223716161906 0.0
0.845181902036 0.0367343033603 0.0
0.901548462979 0.0436255969153 0.0
0.744385994899 -0.0332251944043 0.0
0.834278293543 -0.0270848515012 0.0
1.21469905463 0.0286780494318 0.0
1.06784250912 -0.0427672401255 0.0
0.950760973363 0.0408429561318 0.0
1.19724683215 -0.0258747892933 0.0
1.01405301796 0.00260087097582 0.0
1.47635209918 -0.0114941951081 0.0
0.739096884007 -0.0118208381915 0.0
1.22493666836 0.0580784951745 0.0
1.48488837664 -0.0232142725806 0.0
1.13845712395 -0.0202071705895 0.0
0.935584017317 -0.0155397041156 0.0
0.912327533694 -0.0760313318524 0.0
0.816670084999 -0.0488978024299 0.0
1.08057614275 -0.122697404865 0.0
0.855450003807 0.0101446631403 0.0
1.07445469397 0.0550621468062 0.0
0.961473637702 -0.0558732741685 0.0
0.989906561786 -0.0238886510962 0.0
0.901822978995 -0.055420090366 0.0
0.978247859751 -0.0369615528211 0.0
1.06814565022 0.00111551208062 0.0
0.840425035997 0.000787744347258 0.0
0.890860155297 0.0407417198165 0.0
1.03726913671 0.0335585872963 0.0
0.989380146542 0.0628400082528 0.0
0.73509299191 -0.00871902206395 0.0
0.996108676711 -0.0182980095211 0.0
0.844712995421 -0.0379063074097 0.0
0.923613186988 -0.0857557197743 0.0
0.885006860661 -0.067506173797 0.0
0.928195399798 -0.0675232549862 0.0
0.730708315281 0.0349898774393 0.0
0.968582814853 0.0118719329974 0.0
1.46629018667 -0.00886686490814 0.0
1.47073116409 -0.0208885718204 0.0
0.895596604358 0.0348196392386 0.0
0.708814982968 0.0377466033169 0.0
1.49168194203 0.0205625076157 0.0
1.45860319179 0.03292991085 0.0
0.73924081836 -0.0345881137467 0.0
0.897017057608 -0.0501945157935 0.0
0.961306454658 -0.0282848028187 0.0
0.684414687166 9.30113224633e-05 0.0
0.776164997141 0.0422766921146 0.0
0.814608621104 0.0518977853706 0.0
0.69958453349 -0.0142638592427 0.0
1.48392596928 -0.0303510465292 0.0
1.46914065797 -0.0318905097283 0.0
1.47092519614 0.014675933658 0.0
1.49080399513 -0.0228617309692 0.0
1.47471424547 0.0346012821362 0.0
1.47985565402 0.0235226498674 0.0
1.47681029823 -0.00968875042008 0.0
1.47597962801 -8.33527295214e-05 0.0
1.41965344444 -0.0006526955669 0.0
1.35173203774 -0.0446695012518 0.0
1.31734122879 -0.0473346614466 0.0
1.48770963988 -0.0356330947194 0.0
1.48512966927 -0.0525981383547 0.0
1.46186435895 0.01831173132 0.0
1.44773239255 0.0195007763859 0.0
1.49218939078 0.0231056555304 0.0
1.45133032574 0.0483197632589 0.0
1.47442888634 0.0274248808427 0.0
1.46917737745 0.0288702712721 0.0
1.45501404264 0.0309511149511 0.0
1.46422812198 -0.0220233374784 0.0
1.45541548265 -0.0300514881592 0.0
1.44261246306 0.0140403352919 0.0
1.47220915013 -0.0310563371269 0.0
0.677737343628 0.0102024927642 0.0
0.872112631286 0.0461252040734 0.0
0.725207669169 0.0397723661567 0.0
0.818130610925 0.0663100239521 0.0
0.828817304403 0.032293573382 0.0
0.905611041271 -0.0478689046515 0.0
0.732236215076 -0.0300971305158 0.0
0.68227584013 -0.00496305311542 0.0
0.96021691464 -0.0345535344379 0.0
0.946842372186 -0.012125963479 0.0
0.805956011387 -0.0348600462735 0.0
1.19212099848 0.253935865428 0.0
0.831566088274 0.0132967976351 0.0
0.8539256299 -0.0376900861024 0.0
1.0803001811 -0.0522216802308 0.0
1.3444348137 -0.0388205113493 0.0
1.19316088331 -0.102162967375 0.0
0.768000279236 -0.000764785281271 0.0
0.971860361235 0.0112692450686 0.0
0.804165166419 0.0510455482161 0.0
0.913575888724 0.053839426917 0.0
0.85113259245 0.0791585424672 0.0
0.940305718663 -7.46670813379e-05 0.0
0.735950577192 -0.0169398727499 0.0
0.962497084493 -0.0307896721836 0.0
0.945621974775 -0.0247415725949 0.0
0.739170837227 -0.0369201971752 0.0
1.41279095206 -0.0232916410927 0.0
1.3617575235 -0.0100337095545 0.0
0.813078687344 0.0322023927138 0.0
1.4178613078 0.0349636917681 0.0
1.39550695431 0.0297414959346 0.0
0.845437751653 -0.0492964551719 0.0
0.94238249076 0.0459983389564 0.0
1.43639510976 0.0262975009258 0.0
1.41311464758 0.0107825389587 0.0
0.967170193011 0.00976898178895 0.0
0.770389405657 -0.00412926167638 0.0
1.43187090963 -0.0314133243557 0.0
1.42580939503 -0.0267692750473 0.0
1.42973329987 0.0256524829851 0.0
1.41808565846 -0.0134304235562 0.0
0.821871720554 -0.0367073983085 0.0
1.427508251 0.0226140913049 0.0
1.35024681346 0.0482752268394 0.0
1.3747525908 -0.0531169706851 0.0
1.27738982091 0.00777970268601 0.0
1.27438251477 -0.0344328397928 0.0
1.25734813081 -0.0162605872592 0.0
1.26682805573 0.0427320545112 0.0
1.28652240741 0.0308647890229 0.0
1.27415302704 0.00625437608107 0.0
1.24201530862 0.0388138057731 0.0
1.25462251259 0.00626774386901 0.0
1.27604082707 -0.00689493442956 0.0
1.23841183947 -0.0252479961128 0.0
1.2718180855 -0.0447369458567 0.0
1.2939366311 -0.0353764540908 0.0
1.24968312028 -0.0479562570113 0.0
1.25910898706 0.0185505064987 0.0
1.27257208095 0.0260115760419 0.0
1.29128029994 0.0393660108036 0.0
1.28766383834 0.0224276934025 0.0
1.27998280425 0.0195686619698 0.0
1.2200567193 -0.0777285176836 0.0
1.33023094187 -0.0303895364842 0.0
1.26231883564 0.0102588477593 0.0
1.27764291529 0.0374340380408 0.0
1.26844806842 -0.0450265183937 0.0
1.24435477452 -0.0205220597317 0.0
1.26046610655 0.0408741726506 0.0
1.35577513224 -0.0258100320107 0.0
1.23494972118 8.77632453895e-05 0.0
1.27719798232 -0.0117893405806 0.0
1.35536596758 -0.0256961715907 0.0
1.36345455202 -0.0191068564966 0.0
1.00997454358 -0.133417601832 0.0
1.31432595495 0.00306806041435 0.0
1.28772853016 -0.0178058396448 0.0
1.47874162484 -0.0337556726559 0.0
1.48218132093 -0.0100545935349 0.0
1.31125552179 -0.00171824029525 0.0
1.04286574944 0.0994228214515 0.0
0.622796803672 -0.00785302835778 0.0
1.26028637265 0.172649322499 0.0
1.03022966606 -0.0772410384185 0.0
1.30032544157 -0.00240773966783 0.0
1.36328731568 -0.0347312322444 0.0
1.2990008114 -0.000130742820451 0.0
1.46732339108 -0.0148473018394 0.0
1.38792884684 0.0162255978851 0.0
0.811502999175 0.134559382728 0.0
0.790907182906 0.0575824421194 0.0
0.980178329785 -0.104276243509 0.0
0.967689548235 -0.0978990027637 0.0
1.45764940258 0.022491773353 0.0
1.43257964746 0.0552740140454 0.0
0.7940620319 0.0592054708901 0.0
0.572980346105 0.0213600199656 0.0
0.796116488521 0.0231789588552 0.0
1.47740295681 0.0256108483853 0.0
1.45354445417 -0.0271132935144 0.0
1.45299867447 -0.025345144476 0.0
1.42966525684 0.0375506626471 0.0
1.46444761316 -0.0186159387894 0.0
1.47076666853 -0.0354366249503 0.0
1.45629696219 0.0227618768074 0.0
1.47067653109 0.0302004945305 0.0
0.619170391471 -0.0262383996548 0.0
0.700880411433 -0.0509967635049 0.0
1.47619021184 0.027725867651 0.0
0.862545611805 0.0150637823282 0.0
0.54183088584 -0.0160290963842 0.0
0.664777345409 0.0524853707902 0.0
0.729687512064 0.0435281822994 0.0
0.671743129894 -0.0393343521594 0.0
0.795523779772 -0.0546588279522 0.0
0.571641767948 -0.0174348801808 0.0
0.810539389126 -0.0621001192693 0.0
0.644871546375 0.0171827860705 0.0
0.791764773206 -0.0447591892812 0.0
0.554819520136 0.0371781679958 0.0
0.717087025736 0.0371090949165 0.0
0.518019215533 0.0746417131247 0.0
1.09283954367 0.0684255000131 0.0
0.951840480661 -0.0410298348467 0.0
0.494594531833 0.00666142684127 0.0

SCALARS scalar1 double
LOOKUP_TABLE default
4.32099992401
7.48417156961
3.88461891067
4.66724433282
-5.90534658503
-2.44796039518
8.16923209333
6.94103450232
5.15066426272
5.07913546162
5.80728980891
7.24982743191
8.50822177331
7.8568799961
6.16605823634
4.62989594507
3.95364678904
3.87725536267
4.12164921255
5.24042085563
6.48721168006
8.02458341288
8.12361489741
7.28077082554
5.90368485352
4.68225961307
3.9265564592
3.75374250842
4.31728163944
4.96991171837
7.53366869213
5.87976605644
10.0779343257
7.58458341722
6.52654094918
4.92640490761
4.02978339991
3.87286288905
3.99561303973
4.98910132074
6.22949593883
7.77624041385
8.10066361527
7.36924115137
6.02667575932
4.83851712381
3.67633360942
3.89885975125
4.63832548137
5.72784010803
7.4068666407
8.16717935891
8.43905800836
6.64731261254
3.69844049615
1.3421269949
-0.97305253264
-3.13886859009
-4.77283278947
-4.28243341261
-3.61809846901
-3.88273743851
-5.43373350553
-6.66733326074
-8.70122848972
-7.94522781459
-7.05412641504
-6.01926899434
-4.74487970567
-3.79402416669
-3.86943952179
-4.56661747441
-5.22780035966
-7.03197055527
-7.85724619212
-8.08888602788
-7.79791042942
-7.69076119496
-3.92076232147
-4.20029219876
-4.16017717376
-4.64772513873
-5.58159808897
-5.93725971048
-10.1614150816
-8.73267671777
-7.03144291522
-5.85009673736
-4.58162800599
-3.8189557358
-4.09985059329
-4.4270790846
-5.23962720402
-6.82284035044
-8.64805050488
-8.10080833413
-7.25603626254
-6.17422459282
-4.77597460068
-4.53974099275
-4.60700750555
-4.88603013065
-6.58788250405
-8.46487827842
-11.0495713519
-13.8620330116
-13.9872824594
3.32641216883
0.0308423307722
-0.0324711990212
-2.12141982774
0.0958131243878
0.545135263393
0.782828780086
0.629946419911
0.825394519754
0.807535749169
1.10259627278
1.09063678633
1.14321731242
1.10217647378
1.1366175103
0.991914667592
1.04992513839
0.264352866431
0.376396476719
0.213493030958
2.47569502773
-0.715843574416
-1.88018240756
-1.4428355672
-1.75662864833
-1.46759210912
-1.54605561506
-1.49820368794
-1.3294615685
-1.45818139392
-1.49452084611
1.91160024609
1.10042253063
-1.04621851807
-1.65902992571
2.05079311979
1.85680614193
-0.200312446723
-1.61977126439
2.15693317348
2.45847786632
2.15605764183
2.1730758951
2.33933756622
2.27343873114
2.18805430768
2.18173733156
2.24878770106
0.971464392337
-2.14800970496
-2.02959856966
-2.05311444595
2.07661775898
2.16828703598
1.32654257548
2.66823178994
2.65977662035
2.2189169392
-2.71479744695
-2.04315607499
-1.85728308915
-3.07744858476
2.90235501311
2.73419627764
-2.50592954676
-2.27315998515
-2.47348367517
-2.43847669548
-2.61505540746
-2.57931339295
-2.58576874214
-2.39639267806
3.83330191264
3.21072995365
3.40543814573
3.46049687266
3.26179790698
3.89681919926
3.85463462351
3.74257501971
3.976464072
-3.86686445937
-2.56281980472
-2.9437623404
-2.96043060926
2.19395146916
0.0360475826977
0.0954517078214
-4.14887946772
-2.43708791298
0.166771761783
0.0395565236862
3.53033195591
3.65640618996
3.87667518244
-0.0956579104056
-3.68546464322
-3.16640188961
-3.59835106287
-3.41367646615
-3.71334205074
-3.63263045999
-3.23924547401
-3.81558909673
-3.75274977001
-3.27104519662
-3.31264980655
3.9600115692
3.15205046613
3.63427193018
3.15638880592
3.3270282751
3.40684417352
4.05918369671
3.31645676608
0.0140671145273
0.0619525645057
3.7260805956
4.01579594055
0.556518407103
0.625798765531
3.94373965799
3.61593415955
3.51690745384
4.06802607696
4.03100403218
4.06441641322
4.09630353102
0.621722444464
0.712660005295
0.597627502971
0.632842608667
0.29130159798
0.611735881829
0.408764600315
0.486273896698
0.488349133284
0.338916161466
0.227646255208
0.36297273119
0.295785463779
0.550210887298
0.435438790054
0.427638071854
0.582867961218
0.525809243805
0.696061723432
0.473301510427
0.71501691703
0.716233026685
0.735813966069
0.677565706287
4.07209200684
3.81484302015
4.16637521394
3.8193358724
3.94694027198
3.58811387277
3.9919430092
4.02351723645
3.512077674
-3.52667081592
-3.75673024676
0.279539536647
-3.98093341956
-3.88995008982
-3.11678703471
1.99501753003
-0.278996597867
-4.31177951899
-3.63284519289
-3.87226635674
-3.7273328267
-3.83429031382
-3.71084849995
-4.11191205858
-3.69655839599
-3.72961983703
-4.13792797144
-1.29924440702
-0.241193559942
-3.85518066356
-1.21561605828
-0.814531895521
-3.79110079697
3.53927922327
-0.953442851423
-1.09864607824
3.46496786214
-3.94929155309
-1.04233834881
-1.10726265362
-1.1348667038
-1.05034714171
3.83053306092
-1.11036464965
-1.55034155784
-1.58515396022
1.92195306243
1.67004742212
2.08243706009
2.40754030242
2.13341641045
2.31813637228
2.21100468026
2.26841832945
2.33890937313
2.18828839907
2.2258600082
1.84111280369
1.21649694502
2.29108496323
2.04105351781
2.15015865213
1.83512960506
2.01036355938
0.825089003202
1.80671853969
2.40126614509
2.19016906746
2.25152778427
2.20564420663
0.373605611509
-1.67035522909
2.28898720429
2.31611963543
-1.38535670558
-1.41519071206
3.60672259083
2.07025370072
2.02658844812
0.714261719668
0.670945611839
-1.97195151467
1.35498919969
-4.49240068073
-3.03761071868
-1.24233151917
2.3885073192
-1.56140951253
0.0981919142236
-0.868886465873
-0.188919796187
-3.93361215107
4.14013383183
3.9482489319
-3.99208707548
-0.76729623552
-0.538628193034
-4.1112708242
-4.26313245876
-4.00433787608
-0.557537655301
-0.665772228034
-1.16701878046
-1.14702974481
-0.626766171229
-0.66503352229
-0.653247399824
-0.781425433469
-4.38287564003
-4.28587486653
-0.792469871297
-4.04342578654
-4.39317300274
-4.33414782431
-4.1569905705
4.41796704349
4.05911548244
4.30466450517
3.95713613307
-4.60048618755
-4.14115660021
4.50535488498
4.23352757673
4.5885871468
1.46384993867
-4.2696439014
-4.40359258594

SCALARS scalar2 double
LOOKUP_TABLE default
4.32099992401
7.48417156961
3.88461891067
4.66724433282
-5.90534658503
-2.44796039518
8.16923209333
6.94103450232
5.15066426272
5.07913546162
5.80728980891
7.24982743191
8.50822177331
7.8568799961
6.16605823634
4.62989594507
3.95364678904
3.87725536267
4.12164921255
5.24042085563
6.48721168006
8.02458341288
8.12361489741
7.28077082554
5.90368485352
4.68225961307
3.9265564592
3.75374250842
4.31728163944
4.96991171837
7.53366869213
5.87976605644
10.0779343257
7.58458341722
6.52654094918
4.92640490761
4.02978339991
3.87286288905
3.99561303973
4.98910132074
6.22949593883
7.77624041385
8.10066361527
7.36924115137
6.02667575932
4.83851712381
3.67633360942
3.89885975125
4.63832548137
5.72784010803
7.4068666407
8.16717935891
8.43905800836
6.64731261254
3.69844049615
1.3421269949
-0.97305253264
-3.13886859009
-4.77283278947
-4.28243341261
-3.61809846901
-3.88273743851
-5.43373350553
-6.66733326074
-8.70122848972
-7.94522781459
-7.05412641504
-6.01926899434
-4.74487970567
-3.79402416669
-3.86943952179
-4.56661747441
-5.22780035966
-7.03197055527
-7.85724619212
-8.08888602788
-7.79791042942
-7.69076119496
-3.92076232147
-4.20029219876
-4.16017717376
-4.64772513873
-5.58159808897
-5.93725971048
-10.1614150816
-8.73267671777
-7.03144291522
-5.85009673736
-4.58162800599
-3.8189557358
-4.09985059329
-4.4270790846
-5.23962720402
-6.82284035044
-8.64805050488
-8.10080833413
-7.25603626254
-6.17422459282
-4.77597460068
-4.53974099275
-4.60700750555
-4.88603013065
-6.58788250405
-8.46487827842
-11.0495713519
-13.8620330116
-13.9872824594
3.32641216883
0.0308423307722
-0.0324711990212
-2.12141982774
0.0958131243878
0.545135263393
0.782828780086
0.629946419911
0.825394519754
0.807535749169
1.10259627278
1.09063678633
1.14321731242
1.10217647378
1.1366175103
0.991914667592
1.04992513839
0.264352866431
0.376396476719
0.213493030958
2.47569502773
-0.715843574416
-1.88018240756
-1.4428355672
-1.75662864833
-1.46759210912
-1.54605561506
-1.49820368794
-1.3294615685
-1.45818139392
-1.49452084611
1.91160024609
1.10042253063
-1.04621851807
-1.65902992571
2.05079311979
1.85680614193
-0.200312446723
-1.61977126439
2.15693317348
2.45847786632
2.15605764183
2.1730758951
2.33933756622
2.27343873114
2.18805430768
2.18173733156
2.24878770106
0.971464392337
-2.14800970496
-2.02959856966
-2.05311444595
2.07661775898
2.16828703598
1.32654257548
2.66823178994
2.65977662035
2.2189169392
-2.71479744695
-2.04315607499
-1.85728308915
-3.07744858476
2.90235501311
2.73419627764
-2.50592954676
-2.27315998515
-2.47348367517
-2.43847669548
-2.61505540746
-2.57931339295
-2.58576874214
-2.39639267806
3.83330191264
3.21072995365
3.40543814573
3.46049687266
3.26179790698
3.89681919926
3.85463462351
3.74257501971
3.976464072
-3.86686445937
-2.56281980472
-2.9437623404
-2.96043060926
2.19395146916
0.0360475826977
0.0954517078214
-4.14887946772
-2.43708791298
0.166771761783
0.0395565236862
3.53033195591
3.65640618996
3.87667518244
-0.0956579104056
-3.68546464322
-3.16640188961
-3.59835106287
-3.41367646615
-3.71334205074
-3.63263045999
-3.23924547401
-3.81558909673
-3.75274977001
-3.27104519662
-3.31264980655
3.9600115692
3.15205046613
3.63427193018
3.15638880592
3.3270282751
3.40684417352
4.05918369671
3.31645676608
0.0140671145273
0.0619525645057
3.7260805956