# vtk DataFile Version 2.0
2D Simulation Python
ASCII
DATASET UNSTRUCTURED_GRID
FIELD FieldData 1
NODES 1 2 int
386 659

POINTS 386 double
0.0 1.0 0.0
1.725 0.9970900523509327 0.0
8.275 1.002909947649067 0.0
10.0 1.0 0.0
10.0 -4.686520405326082e-18 0.0
0.0 0.0 0.0
0.1916666666663293 1.0021675428285906 0.0
0.3833333333324708 1.0035726576200055 0.0
0.574999999998553 1.0037210985866658 0.0
0.7666666666645966 1.0025606519714374 0.0
0.9583333333312576 1.0004995021125478 0.0
1.149999999998384 0.9982626535730036 0.0
1.341666666665662 0.9966369125090588 0.0
1.533333333332819 0.9961941294751809 0.0
1.92348484848444 0.9990889410685205 0.0
2.121969696968978 1.0014307420366237 0.0
2.320454545453434 1.003234027926576 0.0
2.518939393937826 1.0038200623784337 0.0
2.717424242422235 1.002968268670078 0.0
2.915909090906411 1.0009992522941 0.0
3.1143939393908 0.9986541286860158 0.0
3.312878787875129 0.9968155757785045 0.0
3.511363636359531 0.9961756040369939 0.0
3.709848484843827 0.9969750915677879 0.0
3.90833333332816 0.9989131203303835 0.0
4.106818181812215 1.0012602382755418 0.0
4.305303030296804 1.0031330168247334 0.0
4.503787878781365 1.0038265633691121 0.0
4.702272727265711 1.0030798348541026 0.0
4.900757575750005 1.0011738914249508 0.0
5.099242424235156 0.9988261085752189 0.0
5.297727272720327 0.9969201651459958 0.0
5.496212121205663 0.9961734366308905 0.0
5.694696969690998 0.9968669831751819 0.0
5.89318181817668 0.9987397617243332 0.0
6.09166666666213 1.0010868796695043 0.0
6.290151515147423 1.0030249084321479 0.0
6.488636363633031 1.003824395963004 0.0
6.687121212118713 1.0031844242215355 0.0
6.885606060604342 1.0013458713140388 0.0
7.084090909089381 0.9990007477059496 0.0
7.282575757574369 0.9970317313299482 0.0
7.481060606059355 0.9961799376215669 0.0
7.679545454544343 0.9967659720734092 0.0
7.878030303029329 0.9985692579633565 0.0
8.076515151514705 1.0009110589314694 0.0
8.46666666666447 1.0038058705248156 0.0
8.658333333329285 1.0033630874909694 0.0
8.84999999999549 1.0017373464270634 0.0
9.041666666661694 0.9995004978875361 0.0
9.233333333327899 0.9974393480286298 0.0
9.42499999999549 0.996278901413349 0.0
9.616666666663775 0.9964273423799791 0.0
9.808333333331985 0.9978324571713922 0.0
10.0 0.7999999999999998 0.0
10.0 0.6000000000013869 0.0
10.0 0.4000000000016644 0.0
10.0 0.2000000000008322 0.0
9.799999999999999 -0.0022493567784085617 0.0
9.6 -0.0036395357202899927 0.0
9.399999999999999 -0.0036395357202899763 0.0
9.2 -0.002249356778408541 0.0
8.999999999999998 3.140916166106783e-17 0.0
8.799999999999997 0.002249356778408572 0.0
8.599999999999998 0.0036395357202900006 0.0
8.399999999999997 0.0036395357202899823 0.0
8.199999999999998 0.002249356778408534 0.0
7.999999999999997 -3.0940509620535124e-17 0.0
7.799999999999997 -0.002249356778408572 0.0
7.599999999999998 -0.0036395357202900006 0.0
7.399999999999997 -0.0036395357202899823 0.0
7.199999999999998 -0.0022493567784085365 0.0
6.999999999999997 3.0471857580002616e-17 0.0
6.799999999999997 0.002249356778408587 0.0
6.599999999999998 0.0036395357202900006 0.0
6.399999999999997 0.0036395357202899485 0.0
6.199999999999998 0.002249356778408528 0.0
5.999999999999997 -3.0003205539469965e-17 0.0
5.799999999999998 -0.002249356778408578 0.0
5.599999999999998 -0.0036395357202900006 0.0
5.399999999999999 -0.0036395357202900058 0.0
5.199999999999998 -0.002249356778408528 0.0
4.999999999999999 1.5938906850800342e-17 0.0
4.799999999999999 0.002249356778408532 0.0
4.599999999999999 0.0036395357202900352 0.0
4.399999999999999 0.0036395357202899737 0.0
4.199999999999999 0.002249356778408541 0.0
3.999999999999999 -1.5470254810267562e-17 0.0
3.799999999999999 -0.002249356778408539 0.0
3.599999999999999 -0.0036395357202900023 0.0
3.399999999999998 -0.0036395357202899737 0.0
3.199999999999998 -0.0022493567784085088 0.0
2.999999999999999 1.5001602769734983e-17 0.0
2.799999999999998 0.0022493567784085677 0.0
2.599999999999998 0.003639535720290031 0.0
2.399999999999999 0.0036395357202899884 0.0
2.199999999999999 0.002249356778408526 0.0
1.999999999999998 -2.4729685715305313e-17 0.0
1.799999999999999 -0.0022493567784085747 0.0
1.6 -0.003639535720289978 0.0
1.4 -0.003639535720289978 0.0
1.199999999999999 -0.002249356778408521 0.0
0.9999999999999982 2.2561577843755596e-17 0.0
0.7999999999999989 0.0022493567784085747 0.0
0.6000000000000014 0.003639535720289984 0.0
0.3999999999999986 0.003639535720289984 0.0
0.1999999999999993 0.0022493567784085287 0.0
0.0 0.1999999999995579 0.0
0.0 0.3999999999989749 0.0
0.0 0.5999999999989468 0.0
0.0 0.7999999999994734 0.0
0.6588466721558902 0.555884485993518 0.0
9.341152799477815 0.5360538584625274 0.0
8.741432843929212 0.5755536497022647 0.0
1.2585641980040805 0.559369952343473 0.0
8.16284145013197 0.5780247266666987 0.0
1.8371433498036998 0.5675822223260327 0.0
2.4304413607642648 0.6095201205358709 0.0
7.569477443418553 0.5860897102217503 0.0
3.0304922464090214 0.601192599508684 0.0
6.969026184862716 0.6012554358106911 0.0
3.6286638988264346 0.5901791661622182 0.0
6.367982669882136 0.6013262598448293 0.0
4.229400771711424 0.5989060100895562 0.0
5.795134235641516 0.5192722785194189 0.0
4.802478518877148 0.5347231893080985 0.0
5.2988202667462145 0.5084168744205865 0.0
9.677454509484498 0.6901030092877364 0.0
0.3225453491424485 0.7109108700083271 0.0
4.530525394769402 0.35011375080969337 0.0
3.918822762624679 0.3695353088467108 0.0
6.06796473719765 0.3396479956655474 0.0
3.319411585741645 0.36734122190612767 0.0
6.679655353704499 0.3811165630862072 0.0
7.878986044497041 0.36305962880912307 0.0
2.1209823989275187 0.37180346035448314 0.0
2.7201102948766067 0.384233060118741 0.0
7.279714263279717 0.3662131591943613 0.0
9.037270241753745 0.6711535239619321 0.0
0.9627286494646564 0.6739268494232774 0.0
1.5320838478638212 0.3497651519941303 0.0
8.467910220554822 0.37092578603383103 0.0
8.45829414280657 0.6914773624418081 0.0
1.5417001682678277 0.6685258650850189 0.0
0.979399867520512 0.36605297503452844 0.0
9.020598892108698 0.36459455710679345 0.0
4.527199775125974 0.7030182510860463 0.0
3.9214025971026705 0.6984742556728207 0.0
6.06968566036156 0.6926391832651004 0.0
2.118377000189097 0.6967173296610035 0.0
7.8815944997898955 0.6871073582271605 0.0
3.3233611531135883 0.6943283955283285 0.0
6.675556617952617 0.7120012341025922 0.0
2.725371164267599 0.7138119465226885 0.0
7.274462755628016 0.693709857994849 0.0
0.332839578108132 0.3135493309171086 0.0
9.667160267582318 0.29371575678490736 0.0
5.58132421999781 0.30761859868293584 0.0
5.017220607388863 0.3200234679326259 0.0
5.509457727607207 0.6801984704312197 0.0
5.087392122015746 0.6899010534095683 0.0
0.6619005093836823 0.7464039155537486 0.0
9.338099094718167 0.7247035308486113 0.0
8.747624310960134 0.7487094600242176 0.0
1.2523735192372751 0.7313864569234925 0.0
8.670387985295989 0.28596647951861753 0.0
1.329609119759532 0.2662354561222493 0.0
0.6804015937457919 0.24746074012747163 0.0
9.319598013575979 0.22638870955206675 0.0
8.169907996925918 0.7509554811426457 0.0
1.830081043981598 0.7388241666303408 0.0
8.082241617242897 0.2807331188756305 0.0
1.917743131746467 0.2755430750520075 0.0
7.485180592150134 0.2736626391047474 0.0
2.5147355678276293 0.29747823204911755 0.0
6.885160963534239 0.28993043965281445 0.0
3.1144048681652197 0.28376543902717505 0.0
6.2849352313523745 0.2795091944460821 0.0
3.7137890439491317 0.27724867108803775 0.0
2.422449309105572 0.8218594001118303 0.0
7.57750396396829 0.8022630462103492 0.0
3.021605110961535 0.8143120998464968 0.0
6.978106160451861 0.8144441040137513 0.0
3.6184596492902448 0.8049413916494538 0.0
6.3794749689720085 0.8188978123572379 0.0
4.216884897063344 0.8161395963869126 0.0
5.793598400134906 0.8365075897322818 0.0
4.802574982295431 0.848819136854059 0.0
5.299579324208183 0.1771443374312294 0.0
4.313878968218863 0.2814913247337914 0.0
4.743204933905395 0.2459325015253619 0.0
5.8557249860250575 0.23215215126705804 0.0
5.298372066437273 0.706867119322977 0.0
0.19483726775795074 0.5087442204417255 0.0
9.805162635640077 0.49552293083303933 0.0
9.486963243166336 0.15237162341163268 0.0
0.5130365845825977 0.17231317310387673 0.0
9.568925521175402 0.5012249754141058 0.0
0.43107421501557186 0.5231947188616773 0.0
9.509138635941918 0.8260023078737733 0.0
0.490861205286379 0.8467009967413383 0.0
9.823684716684353 0.8213805468177046 0.0
0.1763152367734905 0.8340986162064286 0.0
7.690675621661518 0.18477729190394987 0.0
2.309290976036691 0.20065252394402594 0.0
8.876663735275377 0.19558491620898968 0.0
1.1233350732948653 0.1880380939449711 0.0
7.090880438821776 0.1924594275049647 0.0
2.908943048040167 0.19792858552501025 0.0
6.491076251566927 0.19874704961558065 0.0
3.5085323266900343 0.186252080712979 0.0
1.7133214029350563 0.1813063133379499 0.0
8.286672452437958 0.19496950243294803 0.0
4.108122729055333 0.1934777431832836 0.0
8.577560101828638 0.8380313089504596 0.0
1.4224373956263245 0.8191378932975447 0.0
8.923332976669164 0.8289213046110127 0.0
1.076666070583776 0.8236785096442494 0.0
0.8418681022615252 0.8299104306098503 0.0
9.158131416732411 0.8199088355842908 0.0
8.345850371719765 0.8382107661147169 0.0
1.654144790054515 0.8212217785917293 0.0
5.592449090368932 0.49103547387246016 0.0
5.005265140548639 0.503348264269082 0.0
7.789405108115026 0.8333720062010357 0.0
2.2105728178125 0.8454192667558693 0.0
7.776865077000695 0.5441014975251177 0.0
2.223088673397721 0.5598601059814848 0.0
2.815276574412948 0.8504400491970506 0.0
7.1845906022649535 0.8385821067273151 0.0
3.4120552053238766 0.8353592611373171 0.0
6.587034817292721 0.8519861981138342 0.0
4.009202335048161 0.8427010813838003 0.0
5.984832283935177 0.8424728870263594 0.0
4.611344717671126 0.8527557055070982 0.0
7.175166163349779 0.5532687200391896 0.0
2.8245670238521767 0.5669334562171152 0.0
6.575204015947954 0.5659827333469595 0.0
3.4230889069511927 0.549566525277653 0.0
5.978030920098576 0.5295586707070865 0.0
4.022408006458414 0.5558587473270681 0.0
4.619575537825385 0.5427673919855192 0.0
[...]
POINT_DATA 386
VECTORS vector double
1.0 0.0 0.0
0.0 0.0 0.0
0.0 0.0 0.0
0.0 0.0 0.0
0.0 0.0 0.0
1.0 0.0 0.0
0.0 0.0 0.0
0.0 0.0 0.0
0.0 0.0 0.0
0.0 0.0 0.0
0.0 0.0 0.0
0.0 0.0 0.0
0.0 0.0 0.0
0.0 0.0 0.0
0.0 0.0 0.0
0.0 0.0 0.0
0.0 0.0 0.0
0.0 0.0 0.0
0.0 0.0 0.0
0.0 0.0 0.0
0.0 0.0 0.0
0.0 0.0 0.0
0.0 0.0 0.0
0.0 0.0 0.0
0.0 0.0 0.0
0.0 0.0 0.0
0.0 0.0 0.0
0.0 0.0 0.0
0.0 0.0 0.0
0.0 0.0 0.0
0.0 0.0 0.0
0.0 0.0 0.0
0.0 0.0 0.0
0.0 0.0 0.0
0.0 0.0 0.0
0.0 0.0 0.0
0.0 0.0 0.0
0.0 0.0 0.0
0.0 0.0 0.0
0.0 0.0 0.0
0.0 0.0 0.0
0.0 0.0 0.0
0.0 0.0 0.0
0.0 0.0 0.0
0.0 0.0 0.0
0.0 0.0 0.0
0.0 0.0 0.0
0.0 0.0 0.0
0.0 0.0 0.0
0.0 0.0 0.0
0.0 0.0 0.0
0.0 0.0 0.0
0.0 0.0 0.0
0.0 0.0 0.0
0.901097132164 0.101294109385 0.0
1.40006072774 0.00184767996139 0.0
1.42498378591 -0.00704348692691 0.0
1.00778529873 -0.084228287485 0.0
0.0 0.0 0.0
0.0 0.0 0.0
0.0 0.0 0.0
0.0 0.0 0.0
0.0 0.0 0.0
0.0 0.0 0.0
0.0 0.0 0.0
0.0 0.0 0.0
0.0 0.0 0.0
0.0 0.0 0.0
0.0 0.0 0.0
0.0 0.0 0.0
0.0 0.0 0.0
0.0 0.0 0.0
0.0 0.0 0.0
0.0 0.0 0.0
0.0 0.0 0.0
0.0 0.0 0.0
0.0 0.0 0.0
0.0 0.0 0.0
0.0 0.0 0.0
0.0 0.0 0.0
0.0 0.0 0.0
0.0 0.0 0.0
0.0 0.0 0.0
0.0 0.0 0.0
0.0 0.0 0.0
0.0 0.0 0.0
0.0 0.0 0.0
0.0 0.0 0.0
0.0 0.0 0.0
0.0 0.0 0.0
0.0 0.0 0.0
0.0 0.0 0.0
0.0 0.0 0.0
0.0 0.0 0.0
0.0 0.0 0.0
0.0 0.0 0.0
0.0 0.0 0.0
0.0 0.0 0.0
0.0 0.0 0.0
0.0 0.0 0.0
0.0 0.0 0.0
0.0 0.0 0.0
0.0 0.0 0.0
0.0 0.0 0.0
0.0 0.0 0.0
0.0 0.0 0.0
0.0 0.0 0.0
1.0 0.0 0.0
1.0 0.0 0.0
1.0 0.0 0.0
1.0 0.0 0.0
1.23865417371 -0.0454138739154 0.0
1.46392137878 -0.0363114476151 0.0
1.43986462376 -0.0141803308762 0.0
1.35624868752 -0.0272654450521 0.0
1.43650786905 0.028256734662 0.0
1.41112975973 0.0281016848652 0.0
1.38259648756 0.0143333568756 0.0
1.43126585262 -0.000461783727391 0.0
1.40522787597 -0.0283731411777 0.0
1.40898741748 -0.0233435557261 0.0
1.42910841482 0.000843626825614 0.0
1.40060546571 0.0179997227527 0.0
1.4044425491 0.0197427305749 0.0
1.45769754508 0.0205622539771 0.0
1.45857097723 -0.0194591548268 0.0
1.50951454756 -0.0175958952402 0.0
1.29153677313 0.00282989953882 0.0
1.09091261823 -0.078875423457 0.0
1.35738038995 0.0116741900403 0.0
1.36449572911 0.0259057519428 0.0
1.31077564708 0.0261902868541 0.0
1.35115925284 -0.0202022944018 0.0
1.39846523943 -0.0102492230415 0.0
1.34909323226 0.0262501963919 0.0
1.38158270305 0.0459749948379 0.0
1.40300738284 -0.0121044610482 0.0
1.35525051552 -0.0262634615398 0.0
1.32054975549 -0.0418886725892 0.0
1.23962641194 -0.059855930332 0.0
1.33272628058 0.0279760012802 0.0
1.38935377102 0.0107740009594 0.0
1.27288376577 0.00802380447056 0.0
1.30579634361 0.00451056825642 0.0
1.3436483239 -0.0138284220514 0.0
1.37733989533 -0.0443233505006 0.0
1.22859606113 -0.00375337715547 0.0
1.24905685608 0.0298345533137 0.0
1.2611887212 0.0352633587438 0.0
1.24206058056 0.0407677917936 0.0
1.28562130039 0.023596696278 0.0
1.26798776354 -0.0220427112816 0.0
1.21153436246 -0.0120386537395 0.0
1.20097893628 -0.0123822832608 0.0
1.26903680986 -0.0280548495327 0.0
1.18598412452 0.127154371979 0.0
1.26936667976 -0.0151365262777 0.0
1.2456544615 0.00682022386513 0.0
1.2809879345 -0.0331989646363 0.0
1.27717927833 0.0287270998216 0.0
1.23963777018 -0.0606295773528 0.0
1.12708503276 -0.0804716392275 0.0
1.22531473978 -0.038422485334 0.0
1.1440922097 -0.0197621552983 0.0
1.16854055598 -0.0447753945776 0.0
1.22746358589 -0.00711268620706 0.0
1.19577244015 -0.00414767181265 0.0
1.24926248939 0.00628515117027 0.0
1.08738384888 -0.0359448581986 0.0
1.14243076901 0.0313608472016 0.0
1.16790592192 0.0298532303908 0.0
1.20256538034 0.0451930109087 0.0
1.20177488582 0.0321991884237 0.0
1.16604015348 -0.000597113189551 0.0
1.26506949675 0.00611585483133 0.0
1.22361266397 -0.0226556532257 0.0
1.20050862301 -0.042623940026 0.0
1.21442698775 0.0351882304991 0.0
1.17638563008 0.0023408311664 0.0
0.929408850972 0.00928680608052 0.0
0.923791398176 0.00388501378092 0.0
0.931097261468 -0.0285117364059 0.0
0.935876776534 -0.0276973489098 0.0
0.914362025791 0.00514215017125 0.0
0.942482781667 0.0138610809146 0.0
0.929126108098 0.021933616275 0.0
0.816479234738 0.0251783385452 0.0
0.824681608429 -0.0186669847138 0.0
0.93485079119 -0.0159015808414 0.0
1.22513756894 0.0234573335165 0.0
1.01154292598 -0.0470933106132 0.0
0.993475203204 0.038272238854 0.0
1.13017182766 -0.0200478599039 0.0
1.01778992216 0.0130215754774 0.0
1.47589488991 -0.00890955128104 0.0
0.859445534993 -0.0105284752097 0.0
1.06505376587 0.0681196369451 0.0
1.48430538346 -0.0209513140811 0.0
1.13577536899 -0.0110571331544 0.0
0.790449656221 -0.014280346431 0.0
1.03826596022 -0.0657150861389 0.0
0.769218172713 -0.04545713659 0.0
1.10693418005 -0.111865429958 0.0
0.947366683261 0.00417314881136 0.0
0.96354875318 0.0399979307207 0.0
0.923526776598 -0.04043895188 0.0
1.04207887853 -0.0054684220117 0.0
0.939501838306 -0.0387864837376 0.0
0.947228544464 -0.0198060173839 0.0
0.93182282216 -0.00397917517743 0.0
0.951308444635 0.002850340866 0.0
0.987256909649 0.0349090085079 0.0
0.92758562413 0.015311552947 0.0
0.946360355695 0.0419137584905 0.0
0.859640836981 -0.00645615501323 0.0
0.841291752663 -0.00504761433949 0.0
0.867746146784 -0.0182339625712 0.0
0.890838390006 -0.0578300296869 0.0
0.93578113264 -0.0489984141082 0.0
0.864327873184 -0.0464399967667 0.0
0.851012639917 0.0228015099328 0.0
0.83112282956 -0.00460128377945 0.0
1.46471432648 -0.00755920039505 0.0
1.46689406452 -0.0140208827261 0.0
0.794788877662 0.0132910056438 0.0
0.80810472482 0.0262996035752 0.0
1.48556287729 0.0216937367397 0.0
1.45837262471 0.0285950650827 0.0
0.812286601101 -0.0208939558632 0.0
0.809881249479 -0.0233487339076 0.0
0.791036143496 -0.0139402776353 0.0
0.821215470211 0.00117465730583 0.0
0.797656853937 0.0225690838493 0.0
0.820932459473 0.0317654815747 0.0
0.82393436708 -0.00936429616554 0.0
1.48222949563 -0.0239855897828 0.0
1.46846188419 -0.0288335960953 0.0
1.47298958473 0.00997976526764 0.0
1.48353779363 -0.0199018670524 0.0
1.47185850738 0.0278570027519 0.0
1.47828066478 0.0186932454118 0.0
1.47630760201 -0.010267339619 0.0
1.47578329308 -0.00402630715886 0.0
1.41400705395 0.00271901836031 0.0
1.35308580788 -0.0376392090206 0.0
1.31795741231 -0.0408496224204 0.0
1.48613164393 -0.0329560607482 0.0
1.48393006354 -0.048697167779 0.0
1.46360497011 0.0131752891733 0.0
1.4448027079 0.0231351643075 0.0
1.4900453412 0.0193377203462 0.0
1.44702346427 0.0437446958402 0.0
1.47204654848 0.0229742966608 0.0
1.45986350866 0.0286106342183 0.0
1.45983407944 0.0258463208634 0.0
1.46192977448 -0.0157820811678 0.0
1.45546941783 -0.0291053911232 0.0
1.44740148757 0.0116117969785 0.0
1.46181930339 -0.0277395662879 0.0
0.812065476355 0.00684776269395 0.0
0.782990952752 0.0229384316736 0.0
0.818965080761 0.0245471900288 0.0
0.82978575316 0.0439078662777 0.0
0.834064199691 0.00875368472184 0.0
0.803271702155 -0.0224176336553 0.0
0.816818861191 -0.0191300519184 0.0
0.814487724554 -0.00111413677357 0.0
0.795679985978 -0.0156597135965 0.0
0.897951061027 0.0296007040892 0.0
0.914901752075 -0.0423901871253 0.0
1.17020104681 0.19640121106 0.0
0.879011480688 -0.0104420305318 0.0
0.897443820243 -0.0254813038413 0.0
1.04301390245 -0.0295408554206 0.0
1.35339728022 -0.0378578725914 0.0
1.17415018373 -0.0871672110404 0.0
0.915012511474 0.00777360876637 0.0
0.807681152087 0.0189386782941 0.0
0.846637522474 0.033705324362 0.0
0.865123801369 0.0267136095362 0.0
0.795921623831 0.0510313068891 0.0
0.782221839621 -0.0142218328374 0.0
0.843138675079 -0.0132394140576 0.0
0.838554004063 -0.0220185805115 0.0
0.822066470311 -0.00471153508222 0.0
0.850133833465 -0.0243902311621 0.0
1.41686608709 -0.0255685080528 0.0
1.35383636782 -0.00856173780719 0.0
0.853741433945 0.0173265778156 0.0
1.42133650901 0.0324668475861 0.0
1.38673510419 0.0323564175366 0.0
0.894138675446 -0.0285629394834 0.0
0.840869081254 0.114862944883 0.0
1.44061459705 0.0249946972693 0.0
1.40353240907 0.013593105432 0.0
0.818286556596 -0.0157908647306 0.0
0.898982553518 0.000547138484748 0.0
1.43265329803 -0.0313972911084 0.0
1.42187288807 -0.0246077824563 0.0
1.43676258667 0.0212199097662 0.0
1.40757890601 -0.0105740724775 0.0
0.828382568379 -0.00259234563474 0.0
1.4266798885 0.02075307228 0.0
1.33516493914 0.0386688002895 0.0
1.38035503766 -0.0564398507029 0.0
1.27101945623 0.00686560523766 0.0
1.27777777575 -0.028898299647 0.0
1.24549345005 -0.0134696887355 0.0
1.2498614633 0.0358881480602 0.0
1.29237851431 0.0292141909791 0.0
1.29959696987 0.0104110985529 0.0
1.21631141099 0.0353477055523 0.0
1.2289596366 -0.00396753526481 0.0
1.30015475911 -0.00684878064099 0.0
1.23576371325 -0.0183643904098 0.0
1.26865027635 -0.0383891997356 0.0
1.28927396051 -0.0360159086163 0.0
1.24776344922 -0.044127127368 0.0
1.2386985147 0.00740601605163 0.0
1.27111810173 0.0262186035903 0.0
1.28942109123 0.0360805793958 0.0
1.2899090674 0.0230576811098 0.0
1.27293311187 0.0134909202565 0.0
1.21408979828 -0.0778401018274 0.0
1.3313473388 -0.0318133375063 0.0
1.288894537 0.014865522269 0.0
1.2499122815 0.0328932725779 0.0
1.26736845807 -0.0386683033462 0.0
1.23970905619 -0.0143651894602 0.0
1.27683962985 0.050583779123 0.0
1.3497484056 -0.0229561306731 0.0
1.20792132936 -0.00802960339555 0.0
1.30255137305 -0.0111380027426 0.0
1.33561268048 -0.020141175971 0.0
1.34835909302 -0.0143134404159 0.0
0.838720096816 -0.148842639277 0.0
1.33022788675 0.00326574376911 0.0
1.28003150199 -0.00999814337229 0.0
1.49003772506 -0.0300357569187 0.0
1.49368120319 -0.00262520518141 0.0
1.3133459489 0.00231756593804 0.0
1.03841265677 0.107679870034 0.0
0.7547272865 -0.00781629769424 0.0
1.08589456135 0.17071780713 0.0
1.02428153712 -0.0725261692255 0.0
1.3026953225 0.000759897409221 0.0
1.36024159652 -0.0358149784971 0.0
1.29794174428 0.000555003376492 0.0
1.46075489248 -0.0179047628733 0.0
1.39284938957 0.0197278997273 0.0
0.857119342755 0.0893417572232 0.0
0.645921807919 0.0388532174386 0.0
1.11478900869 -0.106798630338 0.0
0.826204201573 -0.0889748036741 0.0
1.45415982188 0.0202397369951 0.0
1.43258728237 0.0541089775245 0.0
0.635641565019 0.0500085501232 0.0
0.706111639979 0.0134478893393 0.0
0.628331705044 -0.0036106483996 0.0
1.4682691236 0.0222912521006 0.0
1.45680196848 -0.0251040280535 0.0
1.45835627541 -0.0235199441544 0.0
1.42041293545 0.0330467154373 0.0
1.463836695 -0.0153386712999 0.0
1.46741697047 -0.0354496657704 0.0
1.45873696469 0.02514264947 0.0
1.46358679531 0.0263644052113 0.0
0.673849091419 -0.0176833189522 0.0
0.657212350222 -0.0343813167918 0.0
1.47038623541 0.0218337220683 0.0
0.660502904872 0.0240920711526 0.0
0.698980212902 -0.0105050523469 0.0
0.727352412956 0.0351362877918 0.0
0.665919473083 0.0183059102628 0.0
0.825249944895 -0.0368302375599 0.0
0.620858765427 -0.0450619557216 0.0
0.686453161844 -0.0087622413803 0.0
0.668296122257 -0.0338892283319 0.0
0.798036663006 0.0185808986945 0.0
0.638287355245 -0.0337135593549 0.0
0.651824259059 0.0260077718292 0.0
0.62534495139 0.011537585191 0.0
0.471115576808 0.0258953685074 0.0
1.09779297804 -0.0635188726294 0.0
0.755808068244 -0.0215144066547 0.0
0.638643006095 0.00548558930082 0.0

SCALARS scalar1 double
LOOKUP_TABLE default
2.50865430897
5.26472813836
5.56700599489
4.86529433876
-6.1585358624
-2.40241913557
10.351175235
9.92886572181
7.67155711536
6.81932715015
5.93226679651
5.6397640888
5.5112363555
5.20239981773
5.43718387709
5.40082389641
5.52100448938
5.70350445804
5.72441135667
5.69855114477
5.5467460048
5.41853502111
5.36907803122
5.33442937604
5.33397930349
5.47788842225
5.4603031945
5.71705378185
5.91400948715
5.63281534736
6.92659701025
3.99338649115
6.72612405767
5.35764283954
5.70855949553
5.62464820494
5.49844133966
5.67956943697
5.69885545978
5.67452057527
5.58706471992
5.43090248383
5.37119133888
5.29042794621
5.27309798448
5.67402192084
5.48102649149
5.80033208807
5.76731851656
5.38442180565
5.17193554557
4.95145143942
5.41884886239
4.74369708577
3.61835739512
1.33258467984
-0.970831549663
-3.16296433603
-6.51293315883
-6.4686000585
-5.81944063392
-5.39024869212
-5.4840347857
-5.0656210907
-5.51484453084
-5.50838090062
-5.46391963758
-5.8187727844
-5.75965203632
-5.64455267462
-5.94122567811
-5.64981862003
-5.21156272301
-5.51236042387
-5.57844076804
-5.23557237522
-5.54146820157
-7.11509600893
-4.84887146903
-5.90332720451
-5.78719491441
-5.71670096512
-5.72630898382
-4.62538531874
-6.70263954942
-5.42735851372
-5.25686133341
-5.84719654962
-6.00922343797
-5.59878776699
-5.6775508286
-5.71195543173
-5.39097464383
-5.52204365216
-5.50643092864
-5.28907712003
-5.87374547252
-6.24227790518
-5.99524653812
-6.3558610457
-7.09241824861
-6.50781613341
-6.65928857631
-6.3221645394
-7.00944010894
-9.36827658062
-10.795142447
3.11702614713
0.043667514583
-0.00675514928769
-2.22439572408
0.0361987905542
0.507147893589
0.804751736473
0.606072998002
0.862618993575
0.801607117353
1.19915105847
0.975211300733
1.11759311002
1.1017564319
1.02552247872
1.0905829468
1.12867238969
0.245419596104
0.356177527431
0.139830216701
2.31088767847
-0.535000105235
-1.67524787613
-1.4867995022
-1.7679216615
-1.59041940904
-1.37397998179
-1.59110396832
-1.26889692484
-1.30545661026
-1.5801641673
1.92869547725
1.20269351966
-1.21457299099
-1.49518111021
2.22827222493
1.64241579725
-0.197596062612
-1.60328619224
2.35102188847
2.27301472312
2.1507902551
2.17291097421
2.14601907691
2.15763355356
2.40879888228
2.39347537448
2.15867161056
1.10305581917
-2.29605928608
-2.14765450611
-2.05442579474
1.94743344161
2.1370216547
1.39375620798
2.6044106521
2.75704065949
2.19707675653
-2.64290646317
-2.07646918648
-1.99056976864
-3.09730735357
2.91940913483
2.66711538045
-2.48613268542
-2.3700512865
-2.5919558931
-2.34385413899
-2.55957083523
-2.55119254207
-2.50007135276
-2.52788025797
3.14370957846
4.11507818079
3.48644658448
3.44536280967
4.15229665464
3.21872111676
3.36333389673
4.39182800361
3.5420947759
-3.32025200341
-2.51085386084
-3.21861819622
-2.78818964427
2.46624246875
0.0180609753285
0.116501566983
-3.37572059333
-4.27587244715
0.154873306731
-0.027930551285
4.66269878253
2.25765633597
4.32636705573
-0.128462242393
-3.17134784415
-3.86452527135
-3.8952954098
-3.01910782235
-3.5157811886
-3.81620629192
-4.10301987632
-3.21159201483
-3.2036199396
-3.93383311393
-3.60596482063
3.29769747101
4.22698081595
3.44408459939
3.44416280346
2.92320180478
3.85238852571
3.37088020542
4.20995200957
-0.0298032422982
0.0479562172089
4.33403574397
3.50997078145
0.521279652702
0.634687477553
3.50342467087
4.20310028295
4.60000043307
3.37092677103
3.98607370254
4.02175785325
3.40694234053
0.595175405172
0.706182458492
0.630342054872
0.615516845318
0.319934633974
0.619720618657
0.422949329986
0.506186259995
0.484049895991
0.317318498965
0.198333297735
0.366985937643
0.266782885933
0.595915260394
0.44975875735
0.456835532709
0.5910874308
0.546526860898
0.657137025891
0.513830308389
0.678817675143
0.717465633742
0.778148650667
0.64402592999
3.38400716102
4.35133731487
3.65130307298
3.83425309856
3.94413810934
4.28610971001
3.48981264686
3.33785631457
4.53606173469
-3.77363552808
-3.16081114312
0.0309904954573
-3.58380702843
-3.59130607395
-3.48017073338
1.83171418539
-0.153710404412
-3.3416358722
-4.7103053505
-3.71051477502
-3.92628094361
-4.27051385344
-4.98450706841
-3.51840926451
-4.6632899824
-4.487720052
-3.54503245074
-1.21671296388
-0.280281593585
-3.52558528686
-1.15136139105
-0.930875252291
-3.58446691918
4.12421077595
-0.845416798161
-1.1753314881
4.78793854972
-3.27690527604
-0.98763454853
-1.10570646921
-1.04659677417
-1.16161573201
3.83410295949
-1.06783078551
-1.70146956491
-1.51768773627
2.06837506309
1.54864593768
2.26364557034
2.35345803088
1.98242876242
2.24325561418
2.31950073485
2.35822086805
2.13191779971
2.3252612846
2.23404525452
1.92852857332
1.22245496629
2.34978566765
1.95887422452
2.0634436804
1.64488165465
2.09973324011
0.985489182395
1.75232988493
2.33730027999
2.30344389875
2.25509556441
2.35805106444
0.554819688665
-1.76925876864
2.3733934494
2.12938919519
-1.53054246675
-1.47498684572
4.4549774383
1.8410059288
2.12272338771
0.65656387814
0.601336103427
-2.07629451813
1.58380297096
-3.74015498878
-4.91651130735
-0.877605282952
2.25200837613
-1.6047021048
0.188312434343
-0.777092271821
-0.205501709849
-3.76178980349
5.1368973256
2.63143194519
-4.94074248335
-0.775474373973
-0.566139827819
-5.03045102806
-3.60857063807
-5.05179674215
-0.487509807037
-0.714622969506
-1.04594528038
-1.21807355241
-0.637279658109
-0.606392156004
-0.707085678336
-0.759979008093
-4.06661150142
-4.63298932267
-0.739077068844
-5.26338335775
-3.57314959325
-4.05137791891
-4.49707429126
3.44599328286
5.07413107353
3.6924903616
4.84322118698
-3.72395210836
-5.22152938155
3.96754966863
4.85242820729
4.78630380778
1.45929798382
-5.63210460672
-3.68335277399

SCALARS scalar2 double
LOOKUP_TABLE default
2.50865430897
5.26472813836
5.56700599489
4.86529433876
-6.1585358624
-2.40241913557
10.351175235
9.92886572181
7.67155711536
6.81932715015
5.93226679651
5.6397640888
5.5112363555
5.20239981773
5.43718387709
5.40082389641
5.52100448938
5.70350445804
5.72441135667
5.69855114477
5.5467460048
5.41853502111
5.36907803122
5.33442937604
5.33397930349
5.47788842225
5.4603031945
5.71705378185
5.91400948715
5.63281534736
6.92659701025
3.99338649115
6.72612405767
5.35764283954
5.70855949553
5.62464820494
5.49844133966
5.67956943697
5.69885545978
5.67452057527
5.58706471992
5.43090248383
5.37119133888
5.29042794621
5.27309798448
5.67402192084
5.48102649149
5.80033208807
5.76731851656
5.38442180565
5.17193554557
4.95145143942
5.41884886239
4.74369708577
3.61835739512
1.33258467984
-0.970831549663
-3.16296433603
-6.51293315883
-6.4686000585
-5.81944063392
-5.39024869212
-5.4840347857
-5.0656210907
-5.51484453084
-5.50838090062
-5.46391963758
-5.8187727844
-5.75965203632
-5.64455267462
-5.94122567811
-5.64981862003
-5.21156272301
-5.51236042387
-5.57844076804
-5.23557237522
-5.54146820157
-7.11509600893
-4.84887146903
-5.90332720451
-5.78719491441
-5.71670096512
-5.72630898382
-4.62538531874
-6.70263954942
-5.42735851372
-5.25686133341
-5.84719654962
-6.00922343797
-5.59878776699
-5.6775508286
-5.71195543173
-5.39097464383
-5.52204365216
-5.50643092864
-5.28907712003
-5.87374547252
-6.24227790518
-5.99524653812
-6.3558610457
-7.09241824861
-6.50781613341
-6.65928857631
-6.3221645394
-7.00944010894
-9.36827658062
-10.795142447
3.11702614713
0.043667514583
-0.00675514928769
-2.22439572408
0.0361987905542
0.507147893589
0.804751736473
0.606072998002
0.862618993575
0.801607117353
1.19915105847
0.975211300733
1.11759311002
1.1017564319
1.02552247872
1.0905829468
1.12867238969
0.245419596104
0.356177527431
0.139830216701
2.31088767847
-0.535000105235
-1.67524787613
-1.4867995022
-1.7679216615
-1.59041940904
-1.37397998179
-1.59110396832
-1.26889692484
-1.30545661026
-1.5801641673
1.92869547725
1.20269351966
-1.21457299099
-1.49518111021
2.22827222493
1.64241579725
-0.197596062612
-1.60328619224
2.35102188847
2.27301472312
2.1507902551
2.17291097421
2.14601907691
2.15763355356
2.40879888228
2.39347537448
2.15867161056
1.10305581917
-2.29605928608
-2.14765450611
-2.05442579474
1.94743344161
2.1370216547
1.39375620798
2.6044106521
2.75704065949
2.19707675653
-2.64290646317
-2.07646918648
-1.99056976864
-3.09730735357
2.91940913483
2.66711538045
-2.48613268542
-2.3700512865
-2.5919558931
-2.34385413899
-2.55957083523
-2.55119254207
-2.50007135276
-2.52788025797
3.14370957846
4.11507818079
3.48644658448
3.44536280967
4.15229665464
3.21872111676
3.36333389673
4.39182800361
3.5420947759
-3.32025200341
-2.51085386084
-3.21861819622
-2.78818964427
2.46624246875
0.0180609753285
0.116501566983
-3.37572059333
-4.27587244715
0.154873306731
-0.027930551285
4.66269878253
2.25765633597
4.32636705573
-0.128462242393
-3.17134784415
-3.86452527135
-3.8952954098
-3.01910782235
-3.5157811886
-3.81620629192
-4.10301987632
-3.21159201483
-3.2036199396
-3.93383311393
-3.60596482063
3.29769747101
4.22698081595
3.44408459939
3.44416280346
2.92320180478
3.85238852571
3.37088020542
4.20995200957
-0.0298032422982
0.0479562172089
4.33403574397
3.50997078145