# vtk DataFile Version 2.0
2D Simulation Python
ASCII
DATASET UNSTRUCTURED_GRID
FIELD FieldData 1
NODES 1 2 int
386 659

POINTS 386 double
0.0 1.0 0.0
1.725 0.9700586403872805 0.0
8.275 1.0299413596127194 0.0
10.0 1.0 0.0
10.0 -4.8221071204908787e-17 0.0
0.0 0.0 0.0
0.1916666666663293 1.0223025246957989 0.0
0.3833333333324708 1.0367601893484122 0.0
0.574999999998553 1.038287544785733 0.0
0.7666666666645966 1.0263473473635925 0.0
0.9583333333312576 1.0051395331403656 0.0
1.149999999998384 0.9821239003528881 0.0
1.341666666665662 0.9653961431204514 0.0
1.533333333332819 0.9608402102836574 0.0
1.92348484848444 0.9906258302947312 0.0
2.121969696968978 1.0147213513773508 0.0
2.320454545453434 1.0332759227397974 0.0
2.518939393937826 1.0393058141277596 0.0
2.717424242422235 1.0305414428010256 0.0
2.915909090906411 1.0102816187401347 0.0
3.1143939393908 0.9861519099777059 0.0
3.312878787875129 0.9672344652640714 0.0
3.511363636359531 0.9606495962679862 0.0
3.709848484843827 0.9688757730079902 0.0
3.90833333332816 0.9888167558429569 0.0
4.106818181812215 1.0129669849620164 0.0
4.305303030296804 1.0322365879854067 0.0
4.503787878781365 1.0393727048499242 0.0
4.702272727265711 1.0316893820904471 0.0
4.900757575750005 1.012078535265749 0.0
5.099242424235156 0.9879214647359984 0.0
5.297727272720327 0.9683106179105778 0.0
5.496212121205663 0.9606272951500949 0.0
5.694696969690998 0.967763412013727 0.0
5.89318181817668 0.9870330150366867 0.0
6.09166666666213 1.0111832441558912 0.0
6.290151515147423 1.0311242269913468 0.0
6.488636363633031 1.0393504037319812 0.0
6.687121212118713 1.0327655347363511 0.0
6.885606060604342 1.0138480900228566 0.0
7.084090909089381 0.9897183812603674 0.0
7.282575757574369 0.9694585571992396 0.0
7.481060606059355 0.960694185872261 0.0
7.679545454544343 0.9667240772600555 0.0
7.878030303029329 0.9852786486224548 0.0
8.076515151514705 1.0093741697051664 0.0
8.46666666666447 1.0391597897163078 0.0
8.658333333329285 1.034603856879847 0.0
8.84999999999549 1.0178760996477871 0.0
9.041666666661694 0.9948604668604988 0.0
9.233333333327899 0.973652652637097 0.0
9.42499999999549 0.961712455214439 0.0
9.616666666663775 0.9632398106514213 0.0
9.808333333331985 0.9776974753040295 0.0
10.0 0.7999999999999998 0.0
10.0 0.6000000000013869 0.0
10.0 0.4000000000016644 0.0
10.0 0.2000000000008322 0.0
9.799999999999999 -0.023144333961208036 0.0
9.6 -0.03744831899621286 0.0
9.399999999999999 -0.03744831899621278 0.0
9.2 -0.02314433396120773 0.0
8.999999999999998 3.231786677432509e-16 0.0
8.799999999999997 0.023144333961208255 0.0
8.599999999999998 0.03744831899621294 0.0
8.399999999999997 0.037448318996212704 0.0
8.199999999999998 0.023144333961207623 0.0
7.999999999999997 -3.183565606227599e-16 0.0
7.799999999999997 -0.023144333961208255 0.0
7.599999999999998 -0.03744831899621294 0.0
7.399999999999997 -0.037448318996212704 0.0
7.199999999999998 -0.023144333961207745 0.0
6.999999999999997 3.13534453502269e-16 0.0
6.799999999999997 0.023144333961208248 0.0
6.599999999999998 0.03744831899621294 0.0
6.399999999999997 0.037448318996212704 0.0
6.199999999999998 0.02314433396120774 0.0
5.999999999999997 -3.0871234638177814e-16 0.0
5.799999999999998 -0.023144333961208133 0.0
5.599999999999998 -0.03744831899621294 0.0
5.399999999999999 -0.037448318996212794 0.0
5.199999999999998 -0.02314433396120774 0.0
4.999999999999999 1.6400038743187085e-16 0.0
4.799999999999999 0.023144333961208012 0.0
4.599999999999999 0.03744831899621289 0.0
4.399999999999999 0.03744831899621277 0.0
4.199999999999999 0.02314433396120781 0.0
3.999999999999999 -1.5917828031137996e-16 0.0
3.799999999999999 -0.023144333961208005 0.0
3.599999999999999 -0.03744831899621287 0.0
3.399999999999998 -0.03744831899621277 0.0
3.199999999999998 -0.023144333961207644 0.0
2.999999999999999 1.5435617319088907e-16 0.0
2.799999999999998 0.02314433396120806 0.0
2.599999999999998 0.03744831899621294 0.0
2.399999999999999 0.0374483189962128 0.0
2.199999999999999 0.023144333961207755 0.0
1.999999999999998 -2.5445145494246054e-16 0.0
1.799999999999999 -0.023144333961208 0.0
1.6 -0.03744831899621285 0.0
1.4 -0.03744831899621285 0.0
1.199999999999999 -0.023144333961207783 0.0
0.9999999999999982 2.3214311634329256e-16 0.0
0.7999999999999989 0.023144333961208 0.0
0.6000000000000014 0.03744831899621279 0.0
0.3999999999999986 0.03744831899621279 0.0
0.1999999999999993 0.023144333961207814 0.0
0.0 0.1999999999995579 0.0
0.0 0.3999999999989749 0.0
0.0 0.5999999999989468 0.0
0.0 0.7999999999994734 0.0
0.6612154389801487 0.5478335426392196 0.0
9.338784561016713 0.5337510503883239 0.0
8.745025052351284 0.5627836243115242 0.0
1.2549749476137309 0.55228554206438 0.0
8.169536361703537 0.5617922833405921 0.0
1.8304635260476447 0.5544491154028577 0.0
2.423038094808919 0.5882614025181591 0.0
7.576945968284835 0.5686705277391805 0.0
3.0214227896682058 0.5792287478298049 0.0
6.978146197051011 0.580362164623461 0.0
3.6183339901678835 0.5703057218308996 0.0
6.376793344043606 0.5847337203624676 0.0
4.219505669412143 0.5814606939820629 0.0
5.799879733395525 0.5129177305289723 0.0
4.796483172360832 0.5228244887682114 0.0
5.29819520766589 0.5046210713934836 0.0
9.675480116843396 0.6865094453116869 0.0
0.324519883154396 0.7100033768910028 0.0
4.523287467119784 0.33978982429083504 0.0
3.909073931198129 0.3526314225887318 0.0
6.074184456216723 0.32859258357140775 0.0
3.3102426550002977 0.3465667957761102 0.0
6.688369935413128 0.3647295907415392 0.0
7.885475372828111 0.347269675559579 0.0
2.1145219678764584 0.3571086499254056 0.0
2.712363393303348 0.3644900441993801 0.0
7.2875289044813165 0.3479154573129158 0.0
9.037426396026742 0.6644438761867179 0.0
0.9625736039688306 0.6673926200438999 0.0
1.5271399086136928 0.3388767124780173 0.0
8.472860082349083 0.360259008210146 0.0
8.463286857857593 0.6809428350730249 0.0
1.5367131410729835 0.6581696752914621 0.0
0.9790944393016324 0.3587720300407575 0.0
9.020905560695962 0.3579395347429329 0.0
4.519862690695528 0.6925675619545285 0.0
3.912104617493674 0.6807128750179264 0.0
6.076019239842236 0.6831465229102129 0.0
2.1123860644555457 0.6821519445694177 0.0
7.887612962012754 0.6717711633099784 0.0
3.3148154367934857 0.6737608236809526 0.0
6.683911631116055 0.695760253230872 0.0
2.7182191570988765 0.6952725507169606 0.0
7.281712645120495 0.6745763745858445 0.0
0.33475202722709185 0.31286459146985524 0.0
9.665247972771892 0.2901833324747015 0.0
5.583193033270344 0.30086248335407334 0.0
5.0143116271170705 0.31385398999662645 0.0
5.510852311171436 0.6731400779595723 0.0
5.0849525703915255 0.6828495966563369 0.0
0.6638533925473368 0.744420521536597 0.0
9.336146607448327 0.7185463717315632 0.0
8.75032724343019 0.7428565521680286 0.0
1.2496727565657146 0.7225710186524399 0.0
8.673594296195853 0.28015534855464636 0.0
1.326405703196789 0.25559572261024005 0.0
0.6821616629357994 0.24669091347934774 0.0
9.317838337062803 0.21976447887459602 0.0
8.17487797657041 0.7412941318356157 0.0
1.8251219932735947 0.726525788683384 0.0
8.087607796833368 0.2698647188934967 0.0
1.9123917341091363 0.26284943260381366 0.0
7.491574560699472 0.25529339373363125 0.0
2.508393452909703 0.28471193655688215 0.0
6.892691170126715 0.2754610005984427 0.0
3.106759948588561 0.2651683905620059 0.0
6.291498516046469 0.271064511341566 0.0
3.7053047798945307 0.25870588811129686 0.0
2.4182004323391806 0.8208490451335558 0.0
7.5817928317043695 0.7803205009142068 0.0
3.016367482278016 0.8005668903421463 0.0
6.983407487130991 0.802569001781379 0.0
3.6124513926915744 0.7818402262166292 0.0
6.384720946795144 0.8200608755406625 0.0
4.211010212895084 0.812869066967498 0.0
5.795944540931064 0.8243903926860651 0.0
4.7996275800934765 0.8517137785349622 0.0
5.299263372785379 0.16355482781953037 0.0
4.306430579522561 0.27265563194974757 0.0
4.738786619502243 0.2433810655133107 0.0
5.859321663291642 0.22104756220951147 0.0
5.297891316570109 0.6979521978507719 0.0
0.1963525027426837 0.5057162578827298 0.0
9.803647497256334 0.4954477904810766 0.0
9.48553765909931 0.13846400436060843 0.0
0.5144623408999051 0.18228169244834908 0.0
9.566304125741354 0.5006140776449782 0.0
0.4336958742565322 0.5169228122658327 0.0
9.507639269920665 0.8120271956473488 0.0
0.4923607300753584 0.8564336628386191 0.0
9.822774843195342 0.8151809999466944 0.0
0.17722515680327294 0.8384506628931294 0.0
7.694886358942867 0.1652358052196216 0.0
2.3051065397684853 0.20011053803593432 0.0
8.877779425554428 0.19445427333340498 0.0
1.1222205744265419 0.17922128501980414 0.0
7.095948005549885 0.1780056008457303 0.0
2.903878956852083 0.18918950709496146 0.0
6.496149560351531 0.2014575716461645 0.0
3.502722529840657 0.16275734915345363 0.0
1.709894320038177 0.16466890472362145 0.0
8.290105624371897 0.1969579607289851 0.0
4.102424807184923 0.18802324813888852 0.0
8.580160149597972 0.8431957724358687 0.0
1.4198398503453662 0.8024973761679337 0.0
8.924183358866593 0.8265805773422543 0.0
1.0758166411281813 0.8171816848453873 0.0
0.8424916080271992 0.8313348250774737 0.0
9.157508391967276 0.811443976155116 0.0
8.349062273759927 0.8416520199327511 0.0
1.6509377243320276 0.8042193171507475 0.0
5.594890890437835 0.48719689165937935 0.0
5.001592441693225 0.49566634170930735 0.0
7.792951325085111 0.815948413301484 0.0
2.20704752521442 0.84442889606808 0.0
7.784160056624784 0.5277564873919852 0.0
2.2158357897314414 0.539776867234724 0.0
2.810979678587781 0.8460455161223301 0.0
7.188954734468297 0.8204069744917316 0.0
3.4069743812064406 0.8112097826139565 0.0
6.591913019798308 0.8549035189467971 0.0
4.003779513713236 0.8329772507882037 0.0
5.988111235443168 0.8370149067503371 0.0
4.607481998738448 0.8593356576617268 0.0
7.18408365220914 0.5334501642541151 0.0
2.8157474412581296 0.5427006187574673 0.0
6.584891502158989 0.5449211725193644 0.0
3.4127446191020825 0.5294754890061224 0.0
5.984599433796196 0.5193110064594498 0.0
4.011602981373107 0.5367420914091502 0.0
4.611794816672287 0.5277376643703829 0.0
8.554266024681759 0.5361733679842768 0.0
[...]
POINT_DATA 386
VECTORS vector double
1.0 0.0 0.0
0.0 0.0 0.0
0.0 0.0 0.0
0.0 0.0 0.0
0.0 0.0 0.0
1.0 0.0 0.0
0.0 0.0 0.0
0.0 0.0 0.0
0.0 0.0 0.0
0.0 0.0 0.0
0.0 0.0 0.0
0.0 0.0 0.0
0.0 0.0 0.0
0.0 0.0 0.0
0.0 0.0 0.0
0.0 0.0 0.0
0.0 0.0 0.0
0.0 0.0 0.0
0.0 0.0 0.0
0.0 0.0 0.0
0.0 0.0 0.0
0.0 0.0 0.0
0.0 0.0 0.0
0.0 0.0 0.0
0.0 0.0 0.0
0.0 0.0 0.0
0.0 0.0 0.0
0.0 0.0 0.0
0.0 0.0 0.0
0.0 0.0 0.0
0.0 0.0 0.0
0.0 0.0 0.0
0.0 0.0 0.0
0.0 0.0 0.0
0.0 0.0 0.0
0.0 0.0 0.0
0.0 0.0 0.0
0.0 0.0 0.0
0.0 0.0 0.0
0.0 0.0 0.0
0.0 0.0 0.0
0.0 0.0 0.0
0.0 0.0 0.0
0.0 0.0 0.0
0.0 0.0 0.0
0.0 0.0 0.0
0.0 0.0 0.0
0.0 0.0 0.0
0.0 0.0 0.0
0.0 0.0 0.0
0.0 0.0 0.0
0.0 0.0 0.0
0.0 0.0 0.0
0.0 0.0 0.0
1.02513947952 0.091619656294 0.0
1.16678132034 -0.00870911986749 0.0
1.16146502223 0.00688391701 0.0
1.14913023902 -0.0520561135371 0.0
0.0 0.0 0.0
0.0 0.0 0.0
0.0 0.0 0.0
0.0 0.0 0.0
0.0 0.0 0.0
0.0 0.0 0.0
0.0 0.0 0.0
0.0 0.0 0.0
0.0 0.0 0.0
0.0 0.0 0.0
0.0 0.0 0.0
0.0 0.0 0.0
0.0 0.0 0.0
0.0 0.0 0.0
0.0 0.0 0.0
0.0 0.0 0.0
0.0 0.0 0.0
0.0 0.0 0.0
0.0 0.0 0.0
0.0 0.0 0.0
0.0 0.0 0.0
0.0 0.0 0.0
0.0 0.0 0.0
0.0 0.0 0.0
0.0 0.0 0.0
0.0 0.0 0.0
0.0 0.0 0.0
0.0 0.0 0.0
0.0 0.0 0.0
0.0 0.0 0.0
0.0 0.0 0.0
0.0 0.0 0.0
0.0 0.0 0.0
0.0 0.0 0.0
0.0 0.0 0.0
0.0 0.0 0.0
0.0 0.0 0.0
0.0 0.0 0.0
0.0 0.0 0.0
0.0 0.0 0.0
0.0 0.0 0.0
0.0 0.0 0.0
0.0 0.0 0.0
0.0 0.0 0.0
0.0 0.0 0.0
0.0 0.0 0.0
0.0 0.0 0.0
0.0 0.0 0.0
0.0 0.0 0.0
1.0 0.0 0.0
1.0 0.0 0.0
1.0 0.0 0.0
1.0 0.0 0.0
1.14703868797 -0.0305408049199 0.0
1.15256018729 -0.0273922157681 0.0
1.137382337 -0.0499341450453 0.0
1.14558615242 -0.0314083163546 0.0
1.13720999124 0.0222329253884 0.0
1.14494552974 0.0579740500096 0.0
1.11112773207 0.0184533967339 0.0
1.15549367174 0.0215487801843 0.0
1.13625922272 -0.0506432448763 0.0
1.13440857092 -0.0482293001724 0.0
1.13736337865 0.0284987234968 0.0
1.09309808848 0.0197798954414 0.0
1.10699640776 0.0298687900616 0.0
1.13785240023 0.0763857199721 0.0
1.14395352963 -0.0584292375585 0.0
1.17198222347 -0.0450154087701 0.0
1.17647325325 0.0254152801247 0.0
1.08255332467 -0.0471734600148 0.0
1.16370309277 -0.00702740127002 0.0
1.12055950796 0.06504333252 0.0
1.14503789348 0.0634927226622 0.0
1.11259371931 -0.0243696228991 0.0
1.13113175815 -0.05112620539 0.0
1.1299630943 0.0352924470448 0.0
1.15158513712 0.0706755817163 0.0
1.1541166623 -0.0391560092585 0.0
1.11073222679 -0.0234402335002 0.0
1.14504706275 -0.0557396199414 0.0
1.140406575 -0.0452671740183 0.0
1.12598084426 0.0211657625875 0.0
1.16796141565 -0.0299865313198 0.0
1.12358077736 -0.0103541715814 0.0
1.16959758038 0.0236712946262 0.0
1.13508302216 -0.0617464161286 0.0
1.12555239879 -0.0632729192022 0.0
1.10489014051 -0.034080644507 0.0
1.12031349259 0.0702610107234 0.0
1.08038062937 0.0896229429937 0.0
1.11735595499 0.0844741368579 0.0
1.13820681478 0.0469354078485 0.0
1.15641164083 -0.0202219362858 0.0
1.09416405526 -0.0525821113575 0.0
1.10131424642 -0.0471185982752 0.0
1.16230515414 -0.0219372890606 0.0
1.1452152705 0.0843380653207 0.0
1.13809122267 0.00818064651355 0.0
1.06742832992 0.0283187363415 0.0
1.12106583582 -0.0903672876152 0.0
1.18653446885 0.0286132174916 0.0
1.09292067143 -0.094526048896 0.0
1.09481329029 -0.0328694127559 0.0
1.16657660427 -0.0492911898503 0.0
1.08561622469 -0.0611004311399 0.0
1.1463162293 -0.0524631553953 0.0
1.14758278941 -0.0439762114916 0.0
1.08385205204 -0.018516333536 0.0
1.16313227178 -0.0517177354254 0.0
1.07507617253 -0.00617439732664 0.0
1.10142123828 0.0205954384362 0.0
1.1420969388 0.0593664058478 0.0
1.11426930372 0.0605765558863 0.0
1.11455252834 0.0712451587747 0.0
1.06604753374 0.0238367090567 0.0
1.16903121587 -0.00462536135681 0.0
1.10824944742 -0.0473793115668 0.0
1.09922700993 -0.0630751938322 0.0
1.15256441549 0.043573068264 0.0
1.07736667911 0.0435874298844 0.0
1.1391496355 0.0190727973173 0.0
1.30009690423 0.0364457996636 0.0
1.19331469511 -0.100698985119 0.0
1.18854833565 -0.101105836011 0.0
1.28761147255 0.0434657286172 0.0
1.16309965185 0.0158552981566 0.0
1.18376107274 0.0594318710833 0.0
1.14845243843 0.146647516973 0.0
1.06895559976 -0.0809573153416 0.0
1.10897188838 -0.0726941386045 0.0
1.17026983414 0.0334474555151 0.0
1.14232048473 -0.0677708796856 0.0
1.08329484018 0.131254512482 0.0
1.17501670801 -0.0951341329234 0.0
1.03717492407 0.0236004764706 0.0
1.16438988475 0.0050400555434 0.0
1.02364301054 0.00619302585223 0.0
1.19516366799 0.0169710430463 0.0
1.16808435501 -0.00393435099545 0.0
1.11888303712 -0.000474831297571 0.0
1.14364681321 -0.00765210364576 0.0
1.01634155207 -0.0264590614363 0.0
1.02908682622 -0.0178265548844 0.0
1.08300981704 -0.0645924731229 0.0
1.01583429836 0.0430364888075 0.0
1.16020716792 0.0649404088348 0.0
1.17640810928 -0.109065439215 0.0
1.12730781987 -0.073851444886 0.0
1.08291007636 -0.0706988824546 0.0
1.13060438005 -0.0888648653368 0.0
1.17190156377 -0.0187531775529 0.0
1.04263357265 0.00307497602731 0.0
1.06590891589 0.0597182109425 0.0
1.15346829516 0.0326814884886 0.0
1.10943029738 0.0951514256794 0.0
1.04971727595 -0.0392177010218 0.0
1.19027224183 0.00377077790375 0.0
1.08601204157 -0.0762011527951 0.0
1.12174311839 -0.0967214867822 0.0
1.06025775811 -0.0551522230987 0.0
1.13891858335 -0.0981458228744 0.0
1.07259746201 0.0332754752184 0.0
1.19882891097 0.039790620495 0.0
1.1563178372 0.0300174124406 0.0
1.15245712689 -0.0698875954432 0.0
1.24915592075 0.0753409127121 0.0
1.10995235546 0.113328234769 0.0
1.14847895249 0.0388280339623 0.0
1.13657191579 0.0539870157025 0.0
1.10968019957 -0.0732369727104 0.0
1.20565335409 -0.0931451711296 0.0
1.25496746251 -0.00280014772753 0.0
1.11018828043 -0.06652457237 0.0
1.20173646614 0.128564599259 0.0
1.16066618332 0.151003704957 0.0
1.06104654002 -0.0525230871247 0.0
1.14545706678 -0.0378032546049 0.0
1.13450866468 -0.0555465105536 0.0
1.11764856223 -0.0274896753785 0.0
1.13667914668 -0.00476037729628 0.0
1.13154217409 0.0936849449569 0.0
1.12111148111 0.0588505699091 0.0
1.14180183259 -0.0445936638718 0.0
1.14404419086 -0.0288201951423 0.0
1.14566375187 -0.00136498899013 0.0
1.14366767395 -0.0485884740727 0.0
1.15415534596 -0.0482959277735 0.0
1.1449467895 -0.0597816005898 0.0
1.14429384854 -0.0498255442922 0.0
1.1350572124 -0.00557377268631 0.0
1.14552641226 0.0323637475931 0.0
1.14524129441 -0.00167759963474 0.0
1.14039794939 0.0668061391372 0.0
1.13630575913 0.038729600512 0.0
1.12724002078 0.0511776877648 0.0
1.12472181947 0.0615174140211 0.0
1.13797916188 -0.0403855832773 0.0
1.12460099648 -0.0494611294614 0.0
1.132592777 -0.0244849430101 0.0
1.14954226484 -0.00206988672326 0.0
1.09873862246 -0.023505853247 0.0
1.23965993012 0.0906715928271 0.0
1.15848225976 0.114448580673 0.0
1.14057916684 0.133522658339 0.0
1.19004356254 0.073478112852 0.0
1.20834610607 -0.0886017593072 0.0
1.10995959015 -0.0743506050635 0.0
1.09370598053 -0.0607039145221 0.0
1.25944562911 -0.0121170354989 0.0
1.16980171115 -0.0778846697419 0.0
1.12553143963 0.046882119878 0.0
1.15277588701 0.237771297322 0.0
1.12924465421 0.022418410489 0.0
1.12173603931 -0.0649406081877 0.0
1.16973649046 -0.122227184042 0.0
1.20082647111 -0.0163264128989 0.0
1.13804923017 -0.0371569304284 0.0
1.0114315344 -0.0142797207278 0.0
1.15662280354 -0.0100194708266 0.0
1.00044123929 0.0898189437603 0.0
1.07467893899 0.0782379000283 0.0
1.04134265952 0.0853120926259 0.0
1.09492222624 -0.00487284659147 0.0
0.982340940729 -0.0146080569268 0.0
1.11910622634 -0.0839855640393 0.0
1.1347353586 -0.0588954663375 0.0
1.00842597904 -0.0768393839556 0.0
1.14899824225 -0.048381641363 0.0
1.12194587112 -0.042076237451 0.0
1.02089219958 0.0714109150119 0.0
1.16347679162 0.0202549884453 0.0
1.12993213366 0.0430783658543 0.0
1.11052779853 -0.126799869847 0.0
1.18609165926 -0.0326493775791 0.0
1.15670987397 0.0287691774178 0.0
1.12823535426 0.0340145565359 0.0
1.11540668954 0.075942884512 0.0
1.09494833245 0.00301632396016 0.0
1.13543109528 -0.0616492126999 0.0
1.12530215376 -0.0307739363201 0.0
1.14149505468 0.00175253649558 0.0
1.10596112796 0.00673379429628 0.0
1.10500510785 -0.0921893474563 0.0
1.1343980017 0.0476383587809 0.0
1.09891115911 0.0786066326118 0.0
1.14963899205 -0.0721813233594 0.0
1.11892290088 -0.0320550989931 0.0
1.1846191756 -0.0208656326611 0.0
1.11672179486 -0.0515390603673 0.0
1.09254181691 0.0448362311351 0.0
1.12407188758 0.10712702396 0.0
1.14666140102 0.0580501632344 0.0
1.08164073989 0.0428219037001 0.0
1.06924864364 -0.0171187006876 0.0
1.14841809707 -0.0127910297001 0.0
1.11369940932 -0.071190601611 0.0
1.14870490457 -0.0335246934621 0.0
1.14000983932 -0.0644080154611 0.0
1.15133553841 -0.038817815543 0.0
1.08352160972 0.00646262920097 0.0
1.16086049696 0.0630229731867 0.0
1.1392187589 0.0370483709426 0.0
1.16957581814 0.048832377497 0.0
1.13190086296 -0.00628274983838 0.0
1.13792456374 -0.0421612462165 0.0
1.15914590109 -0.0431278611367 0.0
1.13685881812 0.0712811196714 0.0
1.05513736512 0.0430770275311 0.0
1.14741663855 -0.0340333896354 0.0
1.10886692798 -0.073749402733 0.0
1.19413521766 -0.000247707432035 0.0
1.14812851732 0.00722288541477 0.0
1.08532005038 -0.01072983319 0.0
1.15762862585 -0.0190456359634 0.0
1.09208201042 -0.023284752788 0.0
1.11005181036 -0.0677773090679 0.0
1.17542717991 -0.142995991206 0.0
1.18536253419 0.0843411575481 0.0
1.12762851081 -0.0594204201887 0.0
1.15888486405 -0.0851715544375 0.0
1.17530833584 -0.00625078954884 0.0
1.14793459389 0.00912972777755 0.0
1.04717968368 0.106592657268 0.0
0.933103163011 0.0314897725482 0.0
1.19574028073 0.140032085258 0.0
1.05536460348 -0.0447392889415 0.0
1.18683382239 -0.00123999844309 0.0
1.12144194119 -0.0340761376382 0.0
1.16561851346 -0.0388239039373 0.0
1.15163399812 -0.0451992750811 0.0
1.13129037408 -0.00985407335545 0.0
1.09228751263 0.201249734817 0.0
1.05136988263 0.0779789074997 0.0
1.04974041945 -0.0408110481181 0.0
1.17416761293 -0.139567855754 0.0
1.14299195836 0.0344437543447 0.0
1.13620363743 0.0694414585917 0.0
0.986436473963 0.103637817848 0.0
0.910222844659 0.0810142474798 0.0
1.00492056663 0.00708963271657 0.0
1.14492376008 -0.00458319663303 0.0
1.12988043995 0.00510514120193 0.0
1.16443045542 -0.0474713200424 0.0
1.14118980645 0.0882721875503 0.0
1.12687344796 -0.0450224632249 0.0
1.12331492326 -0.0527249731061 0.0
1.11005023123 0.049287692794 0.0
1.13261329791 0.0410774575195 0.0
0.951778556836 -0.0624977548986 0.0
1.02755003462 -0.101971186669 0.0
1.13764075327 0.0204989011442 0.0
1.0371363094 0.0258084449347 0.0
0.858216132008 -0.00266097622003 0.0
0.952542035692 0.117495293183 0.0
0.962279723917 0.0652484123535 0.0
0.891003511733 -0.0232634192445 0.0
1.04488259867 -0.0789819309059 0.0
0.945080200424 -0.0764350249881 0.0
1.05865056191 -0.0792086995224 0.0
0.964532050506 -0.00638092726733 0.0
1.10222434703 -0.0938895641597 0.0
1.02429320665 0.056967402303 0.0
1.07156714226 0.0811252158588 0.0
0.872593653451 0.0955757790133 0.0
1.07531881222 0.0509270333121 0.0
1.05183914276 -0.0872569623653 0.0
0.92744937307 -0.000723417623249 0.0

SCALARS scalar1 double
LOOKUP_TABLE default
3.96381522006
10.8550885002
7.79349599322
8.21599544083
-8.61239806958
-2.1474884681
8.76920523452
8.01963207088
7.03921834391
7.28539399688
7.65822795809
9.64897829425
10.9336873084
9.76305138793
9.6768045441
8.22313315694
6.96451031219
6.84909367626
7.80965772917
7.79161232935
8.682150207
10.9411858641
10.0888103653
9.87465051699
10.1584988709
7.97956869074
7.11104592979
7.41495254979
7.52331820457
8.16173410189
10.580472178
7.32049279435
11.625711724
9.70290622235
9.88473518136
9.15853095215
7.40525707763
7.00731259503
7.83493337598
7.66098041579
8.55634008801
10.8562038773
10.1577665911
9.96728279068
9.59164929212
9.16384531394
6.54022383887
7.20740546228
8.01692287215
8.03867736037
10.0352060893
11.0867894901
11.2882484521
10.6259388862
0.809360166324
-0.129167212569
0.0502320421322
-0.619655798812
-8.53551655338
-7.44759195869
-7.69101032691
-7.77828064386
-8.2306531769
-10.0686792746
-12.7828291257
-10.160207114
-9.80400944675
-9.30002568545
-7.04707906215
-6.67374077897
-7.39592460771
-7.20442298836
-8.60700535194
-11.3743436618
-10.2456634333
-10.7118148965
-10.9165512201
-11.2771393017
-6.63587094078
-7.38083034142
-7.24716399512
-7.54657921791
-8.48924914266
-8.26994637083
-13.2889368373
-11.6653971275
-9.40544996347
-8.20685787675
-8.40434515434
-6.9388242584
-6.86418753075
-8.49964485316
-8.84249708327
-9.29529939026
-11.862639269
-10.3735924639
-9.24675889378
-9.74126347459
-7.54432963363
-6.97197912072
-8.21717012027
-7.78750059636
-8.2396524094
-10.1780215986
-11.9731301534
-12.6906746017
-12.8530773257
3.23813751437
0.210274332274
-0.0128552901107
-1.48858234271
-0.0125180051571
-0.00386880619999
-0.0100175133035
-0.01304794711
-0.00984131506791
0.00105678716302
-0.0851554432199
-0.0726685842939
-0.0838754556751
-0.0665449784548
-0.0914093732501
-0.0612067261818
-0.0890016204216
0.00234792011887
-0.00164960020174
-0.0157616227952
-0.276833729364
-0.279208379296
0.384618631316
0.200598148236
0.197441431115
0.158798363849
0.260590644781
0.024463081952
0.22402595611
0.245193318908
0.0689790641081
-0.139059303769
-0.100730921484
0.158688704559
0.233252408908
-0.0600352081438
-0.289780977963
0.136448464187
0.140682783758
-0.206290344648
-0.478982204694
-0.223619114916
-0.142944076105
-0.483824977742
-0.46282759802
-0.239767786047
-0.217451391519
-0.452155629963
0.641943020834
-0.12533729884
0.061409268101
-0.0474953222912
-0.100222941625
-0.21418933802
0.369929839488
-0.207392445944
0.146168877821
-0.172833485569
0.364161773832
0.132002099287
-0.130118588664
-0.110066285058
-0.219741607682
-0.198546923701
-0.101436884703
0.0640955038442
-0.345807091762
0.237707090909
0.266178870428
0.13326017018
0.124232781809
0.0623458477914
-0.0815594981243
0.158723191099
0.374913248255
0.397726234258
0.125697095227
-0.485147039022
-0.3503790302
1.45780203775
1.3039699377
-0.198994825754
0.148759366738
-0.23653918036
-0.0917179280037
-0.0785801655793
-0.00269099475331
0.0249890775147
-1.74862672397
-2.00215216277
0.0217716278854
-0.0480828473878
1.98647115964
1.86152832861
1.62916748493
0.102068350673
-1.33307618781
-1.0377758453
-0.603691335273
-0.180297058487
-0.768245973111
-0.701928761076
-1.05550838207
-0.563127634486
-0.698304799677
-1.35350973279
-0.918307526105
0.948007338931
1.65784873102
1.45993940799
0.932872776728
1.41630117051
0.981345015823
1.20896680509
0.911033180686
-0.049746087784
0.0177151481634
0.978434359915
0.664797854474
0.0174076102407
-0.0228212806989
1.19213748116
1.56112362067
1.1081045196
1.01154171986
0.409445942073
0.382705775073
1.39728796604
-0.00741682583898
-0.0388033156746
-0.0747054790573
0.0333965720589
0.0441889384819
0.00338448164603
-0.0570333763039
-0.0311558798929
0.0110757706161
-0.0171152188842
-0.011931414929
-0.00505974849559
-0.00651685986459
-0.0720653202004
0.0284065122918
-0.0356230239078
-0.0151126519709
0.0261752140565
-0.00259691211549
0.0537989011001
-0.00835968823049
-0.0467792877298
-0.0553946716855
0.0323343561839
1.05477131221
1.0887078069
-0.089789445459
1.25142439205
0.229339169561
1.56548515908
1.18312283878
1.12896888851
1.13670786696
-1.7520104917
-0.476227124442
-0.0829217289748
-1.86929944301
-0.388286612388
-0.971829555042
-0.185918382961
-0.0410455033841
-1.84023716696
-1.78280295803
-1.93248035685
-2.15057756002
-2.9417777773
-3.07848280132
-1.62573385488
-2.34481158582
-1.31681997146
-1.80801632341
0.0332336482589
0.0930405020031
-1.93989523849
0.0221299529851
0.123743620081
-0.94336328475
1.34878057584
0.131822842951
-0.0103825035173
3.02301751976
-0.409517931128
0.133575505393
0.0390642063206
0.07023011883
0.133331578982
1.15406564075
0.141798926879
0.158408466224
0.0824254052099
-0.0703372796345
-0.161143297351
-0.0426468022063
-0.363527120285
-0.211532813657
-0.465823298049
-0.151613673749
-0.388113012298
-0.447505646703
-0.161562311443
-0.258792886012
-0.0299934195229
-0.140383164993
-0.378933937235
-0.15547615092
-0.298912607107
-0.178110152214
-0.150680391247
0.0295499993468
-0.142335204129
-0.471772145613
-0.243265979897
-0.281756666561
-0.153178125119
0.198536368266
0.0534436152002
-0.280463336484
-0.45352235336
0.103535707144
0.110789729146
4.24358270724
-0.171715344079
-0.0480491120429
-0.0261752778645
-0.0887974401536
0.0463248333378
1.04903795792
-2.83892501271
-3.70245847852
-0.748168123532
-0.199743528131
0.10915818367
0.0601422401167
-0.0197341722888
0.0210117259655
-3.19231287767
3.4138733688
2.77821296248
-2.57276462696
-0.00556254482321
0.0152886412239
-4.63392525663
-2.93643294131
-3.81497766778
-0.0211692653851
0.0204072662612
0.0692154393621
0.115083209614
0.028359990025
-0.0109952156696
0.0466695855922
0.0424689327344
-3.33412106526
-2.80083825277
-0.0159680079085
-4.57242438068
-2.92033388389
-3.28422607187
-3.57773451083
2.96107284303
4.16806287536
2.87264576629
3.82731461315
-2.93088223449
-3.21966866618
2.68999042867
3.59526284019
5.91896736405
2.00643930831
-4.38340822607
-3.18578453024

SCALARS scalar2 double
LOOKUP_TABLE default
3.96381522006
10.8550885002
7.79349599322
8.21599544083
-8.61239806958
-2.1474884681
8.76920523452
8.01963207088
7.03921834391
7.28539399688
7.65822795809
9.64897829425
10.9336873084
9.76305138793
9.6768045441
8.22313315694
6.96451031219
6.84909367626
7.80965772917
7.79161232935
8.682150207
10.9411858641
10.0888103653
9.87465051699
10.1584988709
7.97956869074
7.11104592979
7.41495254979
7.52331820457
8.16173410189
10.580472178
7.32049279435
11.625711724
9.70290622235
9.88473518136
9.15853095215
7.40525707763
7.00731259503
7.83493337598
7.66098041579
8.55634008801
10.8562038773
10.1577665911
9.96728279068
9.59164929212
9.16384531394
6.54022383887
7.20740546228
8.01692287215
8.03867736037
10.0352060893
11.0867894901
11.2882484521
10.6259388862
0.809360166324
-0.129167212569
0.0502320421322
-0.619655798812
-8.53551655338
-7.44759195869
-7.69101032691
-7.77828064386
-8.2306531769
-10.0686792746
-12.7828291257
-10.160207114
-9.80400944675
-9.30002568545
-7.04707906215
-6.67374077897
-7.39592460771
-7.20442298836
-8.60700535194
-11.3743436618
-10.2456634333
-10.7118148965
-10.9165512201
-11.2771393017
-6.63587094078
-7.38083034142
-7.24716399512
-7.54657921791
-8.48924914266
-8.26994637083
-13.2889368373
-11.6653971275
-9.40544996347
-8.20685787675
-8.40434515434
-6.9388242584
-6.86418753075
-8.49964485316
-8.84249708327
-9.29529939026
-11.862639269
-10.3735924639
-9.24675889378
-9.74126347459
-7.54432963363
-6.97197912072
-8.21717012027
-7.78750059636
-8.2396524094
-10.1780215986
-11.9731301534
-12.6906746017
-12.8530773257
3.23813751437
0.210274332274
-0.0128552901107
-1.48858234271
-0.0125180051571
-0.00386880619999
-0.0100175133035
-0.01304794711
-0.00984131506791
0.00105678716302
-0.0851554432199
-0.0726685842939
-0.0838754556751
-0.0665449784548
-0.0914093732501
-0.0612067261818
-0.0890016204216
0.00234792011887
-0.00164960020174
-0.0157616227952
-0.276833729364
-0.279208379296
0.384618631316
0.200598148236
0.197441431115
0.158798363849
0.260590644781
0.024463081952
0.22402595611
0.245193318908
0.0689790641081
-0.139059303769
-0.100730921484
0.158688704559
0.233252408908
-0.0600352081438
-0.289780977963
0.136448464187
0.140682783758
-0.206290344648
-0.478982204694
-0.223619114916
-0.142944076105
-0.483824977742
-0.46282759802
-0.239767786047
-0.217451391519
-0.452155629963
0.641943020834
-0.12533729884
0.061409268101
-0.0474953222912
-0.100222941625
-0.21418933802
0.369929839488
-0.207392445944
0.146168877821
-0.172833485569
0.364161773832
0.132002099287
-0.130118588664
-0.110066285058
-0.219741607682
-0.198546923701
-0.101436884703
0.0640955038442
-0.345807091762
0.237707090909
0.266178870428
0.13326017018
0.124232781809
0.0623458477914
-0.0815594981243
0.158723191099
0.374913248255
0.397726234258
0.125697095227
-0.485147039022
-0.3503790302
1.45780203775
1.3039699377
-0.198994825754
0.148759366738
-0.23653918036
-0.0917179280037
-0.0785801655793
-0.00269099475331
0.0249890775147
-1.74862672397
-2.00215216277
0.0217716278854
-0.0480828473878
1.98647115964
1.86152832861
1.62916748493
0.102068350673
-1.33307618781
-1.0377758453