# vtk DataFile Version 2.0
2D Simulation Python
ASCII
DATASET UNSTRUCTURED_GRID
FIELD FieldData 1
NODES 1 2 int
386 659

POINTS 386 double
0.0 1.0 0.0
1.725 0.9770838754674539 0.0
8.275 1.0229161245325462 0.0
10.0 1.0 0.0
10.0 -3.6906810082031833e-17 0.0
0.0 0.0 0.0
0.1916666666663293 1.017069613401991 0.0
0.3833333333324708 1.028135030868482 0.0
0.574999999998553 1.0293040181108721 0.0
0.7666666666645966 1.0201653866456297 0.0
0.9583333333312576 1.0039336283658185 0.0
1.149999999998384 0.9863182256594857 0.0
1.341666666665662 0.9735153545525281 0.0
1.533333333332819 0.9700283945213098 0.0
1.92348484848444 0.9928253211232295 0.0
2.121969696968978 1.0112672345482743 0.0
2.320454545453434 1.0254682886583624 0.0
2.518939393937826 1.0300833677246302 0.0
2.717424242422235 1.0233754083209572 0.0
2.915909090906411 1.0078692102994886 0.0
3.1143939393908 0.9894011307571354 0.0
3.312878787875129 0.9749223454079545 0.0
3.511363636359531 0.969882504869762 0.0
3.709848484843827 0.9761785479699752 0.0
3.90833333332816 0.9914407154820116 0.0
4.106818181812215 1.0099245006253819 0.0
4.305303030296804 1.0246728162759893 0.0
4.503787878781365 1.0301345636669332 0.0
4.702272727265711 1.0242540030158025 0.0
4.900757575750005 1.0092445106668793 0.0
5.099242424235156 0.9907554893344581 0.0
5.297727272720327 0.9757459969849822 0.0
5.496212121205663 0.9698654363330821 0.0
5.694696969690998 0.9753271837233483 0.0
5.89318181817668 0.990075499373626 0.0
6.09166666666213 1.0085592845171065 0.0
6.290151515147423 1.0238214520295175 0.0
6.488636363633031 1.0301174951302132 0.0
6.687121212118713 1.0250776545923694 0.0
6.885606060604342 1.010598869243295 0.0
7.084090909089381 0.9921307897008963 0.0
7.282575757574369 0.976624591679246 0.0
7.481060606059355 0.9699166322753853 0.0
7.679545454544343 0.974531711341525 0.0
7.878030303029329 0.988732765451577 0.0
8.076515151514705 1.0071746788766918 0.0
8.46666666666447 1.0299716054786638 0.0
8.658333333329285 1.0264846454477004 0.0
8.84999999999549 1.0136817743410311 0.0
9.041666666661694 0.9960663716348431 0.0
9.233333333327899 0.979834613354898 0.0
9.42499999999549 0.9706959818892585 0.0
9.616666666663775 0.9718649691313904 0.0
9.808333333331985 0.9829303865978772 0.0
10.0 0.7999999999999998 0.0
10.0 0.6000000000013869 0.0
10.0 0.4000000000016644 0.0
10.0 0.2000000000008322 0.0
9.799999999999999 -0.017713906320158054 0.0
9.6 -0.02866170249954711 0.0
9.399999999999999 -0.028661702499547057 0.0
9.2 -0.017713906320157822 0.0
8.999999999999998 2.473502436783287e-16 0.0
8.799999999999997 0.017713906320158197 0.0
8.599999999999998 0.02866170249954717 0.0
8.399999999999997 0.028661702499547005 0.0
8.199999999999998 0.017713906320157742 0.0
7.999999999999997 -2.4365956267012553e-16 0.0
7.799999999999997 -0.017713906320158197 0.0
7.599999999999998 -0.02866170249954717 0.0
7.399999999999997 -0.028661702499547005 0.0
7.199999999999998 -0.017713906320157836 0.0
6.999999999999997 2.3996888166192244e-16 0.0
6.799999999999997 0.017713906320158207 0.0
6.599999999999998 0.02866170249954717 0.0
6.399999999999997 0.028661702499546977 0.0
6.199999999999998 0.01771390632015781 0.0
5.999999999999997 -2.3627820065371917e-16 0.0
5.799999999999998 -0.017713906320158117 0.0
5.599999999999998 -0.02866170249954717 0.0
5.399999999999999 -0.028661702499547075 0.0
5.199999999999998 -0.01771390632015781 0.0
4.999999999999999 1.25520462343266e-16 0.0
4.799999999999999 0.017713906320158013 0.0
4.599999999999999 0.028661702499547158 0.0
4.399999999999999 0.02866170249954706 0.0
4.199999999999999 0.01771390632015788 0.0
3.999999999999999 -1.2182978133506276e-16 0.0
3.799999999999999 -0.017713906320158027 0.0
3.599999999999999 -0.028661702499547147 0.0
3.399999999999998 -0.02866170249954706 0.0
3.199999999999998 -0.017713906320157742 0.0
2.999999999999999 1.1813910032685958e-16 0.0
2.799999999999998 0.017713906320158068 0.0
2.599999999999998 0.028661702499547182 0.0
2.399999999999999 0.02866170249954708 0.0
2.199999999999999 0.01771390632015783 0.0
1.999999999999998 -1.947487122953438e-16 0.0
1.799999999999999 -0.017713906320158037 0.0
1.6 -0.028661702499547092 0.0
1.4 -0.028661702499547092 0.0
1.199999999999999 -0.017713906320157846 0.0
0.9999999999999982 1.7767464912435948e-16 0.0
0.7999999999999989 0.017713906320158037 0.0
0.6000000000000014 0.02866170249954706 0.0
0.3999999999999986 0.02866170249954706 0.0
0.1999999999999993 0.01771390632015787 0.0
0.0 0.1999999999995579 0.0
0.0 0.3999999999989749 0.0
0.0 0.5999999999989468 0.0
0.0 0.7999999999994734 0.0
0.6588463951776107 0.5555285645974828 0.0
9.341153064880753 0.5364083048688736 0.0
8.741433365288541 0.5751320203993643 0.0
1.2585636449633328 0.5597887141953878 0.0
8.162842073749514 0.5779615327488765 0.0
1.8371426658324987 0.5676420153385718 0.0
2.4304407244695945 0.6103662472572996 0.0
7.5694779847015745 0.585240513609672 0.0
3.0304916560209496 0.6012887897754257 0.0
6.9690266260365865 0.6011562788402047 0.0
3.628663386590232 0.589261475132317 0.0
6.36798297256789 0.6022925099216708 0.0
4.229400392921819 0.5993207827077918 0.0
5.795134382205746 0.5195181366116294 0.0
4.802478294867035 0.5345481590786493 0.0
5.298820231085397 0.5080812341266262 0.0
9.677454612555067 0.6872835493531168 0.0
0.3225452420606547 0.713729754772046 0.0
4.530525128445476 0.35271244652261 0.0
3.9188223445047377 0.3694509900033934 0.0
6.067964936949996 0.33920371709298514 0.0
3.319411073412378 0.365268639079927 0.0
6.679655703451468 0.38320109111339273 0.0
7.878986571661928 0.361869206487664 0.0
2.12098180484128 0.372990998106184 0.0
2.7201097310094133 0.3855809491746485 0.0
7.279714718618141 0.3648622962693962 0.0
9.037270601462394 0.6708925623950586 0.0
0.96272827168188 0.6741858217161578 0.0
1.5320833052528318 0.3475849441310798 0.0
8.467910725110798 0.37310323082555125 0.0
8.458294667029282 0.6937291922553738 0.0
1.5416996047295233 0.6662711653717299 0.0
0.9793994898757373 0.36589802765744645 0.0
9.02059925122709 0.3647475195979912 0.0
4.527199511989192 0.7059566314445175 0.0
3.921402192355548 0.6976015867853235 0.0
6.069685856319697 0.6936464244835674 0.0
2.1183764035806196 0.6978759007021724 0.0
7.881595029959025 0.6859459040782063 0.0
3.3233606560646423 0.69190819301363 0.0
6.675556955594987 0.7144259599068539 0.0
2.7253706165959293 0.7160928783686211 0.0
7.274463196965971 0.6914258820724278 0.0
0.3328394685581706 0.31634416096613255 0.0
9.667160372958621 0.2909203390429743 0.0
5.581324278629493 0.3043650940825329 0.0
5.0172204864487 0.3199529538893472 0.0
5.509457764028808 0.6765404448533822 0.0
5.087392025674548 0.6884217743054257 0.0
0.6619002918162342 0.7498921971644645 0.0
9.338099303298401 0.7212140896244752 0.0
8.747624713339851 0.7515472348718073 0.0
1.252373092667647 0.7285464687295151 0.0
8.67038838242873 0.28965214255902755 0.0
1.3296086968433005 0.2625476116412144 0.0
0.6804013957376236 0.251485443776479 0.0
9.319598203253587 0.22236295188501595 0.0
8.169908479233285 0.7531328771932945 0.0
1.830080515600841 0.736644140393317 0.0
8.082242073943272 0.2819385277254097 0.0
1.917742626978931 0.2743351753852511 0.0
7.485181007532684 0.26931874512467235 0.0
2.514735072695869 0.3018196425276985 0.0
6.885161298915019 0.2915076144648627 0.0
3.114404409039336 0.28219007231394966 0.0
6.284935451888206 0.282827217129173 0.0
3.7137886516484118 0.2738636417492617 0.0
2.4224489299397227 0.8313146437391996 0.0
7.577504286944976 0.7928059930112018 0.0
3.02160476038044 0.8138929705815635 0.0
6.97810642274364 0.8148606344864506 0.0
3.6184593448314426 0.7957332464519912 0.0
6.379475149341385 0.8281389414584652 0.0
4.216884671383587 0.8219897863199318 0.0
5.793598469119929 0.8296396053073622 0.0
4.80257487641529 0.8555255533920276 0.0
5.299579305610761 0.16808895550081848 0.0
4.313878688922514 0.28523360231311806 0.0
4.743204766131886 0.2506129958908403 0.0
5.855725101937172 0.22759163668610186 0.0
5.298372039344024 0.7020813568347333 0.0
0.19483719212043954 0.5087978336994602 0.0
9.80516270847494 0.4954689109499505 0.0
9.486963344168377 0.14194052383199474 0.0
0.513036479395861 0.18274371028435574 0.0
9.568925689860194 0.5013833123291179 0.0
0.4310740395046628 0.5230354419441594 0.0
9.509138737779299 0.8155542462529872 0.0
0.49086109932204014 0.8571484909329042 0.0
9.823684755246122 0.8164234525588037 0.0
0.17631519676866922 0.8390554949624661 0.0
7.690675926036773 0.17641477395264607 0.0
2.3092906245132867 0.20901333180526868 0.0
8.876663981567331 0.19910492463088325 0.0
1.1233348129535874 0.18451672807813216 0.0
7.090880694961833 0.1896558137672628 0.0
2.9089427167049857 0.20073103672191933 0.0
6.491076436486143 0.20887342432886605 0.0
3.5085320332222105 0.17613113910114206 0.0
1.7133210636348148 0.17323733552855872 0.0
8.286672764156526 0.2030367773503039 0.0
4.108122502734399 0.1969113122508755 0.0
8.57756040757541 0.8477908949653454 0.0
1.422437068974852 0.8093766303421199 0.0
8.92333322320099 0.8309745623856778 0.0
1.0766658107311078 0.8216238916262946 0.0
0.8418679034487433 0.834383718924982 0.0
9.158131606596356 0.8154344949796679 0.0
8.345850700805677 0.8472782498063056 0.0
1.654144433707871 0.8121524962772738 0.0
5.592449163151089 0.49091609467277386 0.0
5.0052649948673915 0.503233443516542 0.0
7.789405414058714 0.8262859076727982 0.0
2.210572469790779 0.8525037002358474 0.0
7.776865668144969 0.5440127547912796 0.0
2.223087999217814 0.55994561183137 0.0
2.8152762547964802 0.8566729001827131 0.0
7.184590854571002 0.8323472461824794 0.0
3.412054918557019 0.824570742240677 0.0
6.587035005046067 0.8627812339394983 0.0
4.009202107357398 0.84283077024353 0.0
5.984832382833823 0.8422828327645961 0.0
4.611344580576061 0.8636335070895793 0.0
7.175166659393725 0.553317600362872 0.0
2.8245663946588295 0.566880927527063 0.0
6.575204384545858 0.566056902168076 0.0
3.4230883428452503 0.5495135529128476 0.0
5.978031124567558 0.5296493761437746 0.0
4.022407559489742 0.5559116148498864 0.0
4.619575254781403 0.5425946631345657 0.0
8.54899789456584 0.5509507344461058 0.0
[...]
POINT_DATA 386
VECTORS vector double
1.0 0.0 0.0
0.0 0.0 0.0
0.0 0.0 0.0
0.0 0.0 0.0
0.0 0.0 0.0
1.0 0.0 0.0
0.0 0.0 0.0
0.0 0.0 0.0
0.0 0.0 0.0
0.0 0.0 0.0
0.0 0.0 0.0
0.0 0.0 0.0
0.0 0.0 0.0
0.0 0.0 0.0
0.0 0.0 0.0
0.0 0.0 0.0
0.0 0.0 0.0
0.0 0.0 0.0
0.0 0.0 0.0
0.0 0.0 0.0
0.0 0.0 0.0
0.0 0.0 0.0
0.0 0.0 0.0
0.0 0.0 0.0
0.0 0.0 0.0
0.0 0.0 0.0
0.0 0.0 0.0
0.0 0.0 0.0
0.0 0.0 0.0
0.0 0.0 0.0
0.0 0.0 0.0
0.0 0.0 0.0
0.0 0.0 0.0
0.0 0.0 0.0
0.0 0.0 0.0
0.0 0.0 0.0
0.0 0.0 0.0
0.0 0.0 0.0
0.0 0.0 0.0
0.0 0.0 0.0
0.0 0.0 0.0
0.0 0.0 0.0
0.0 0.0 0.0
0.0 0.0 0.0
0.0 0.0 0.0
0.0 0.0 0.0
0.0 0.0 0.0
0.0 0.0 0.0
0.0 0.0 0.0
0.0 0.0 0.0
0.0 0.0 0.0
0.0 0.0 0.0
0.0 0.0 0.0
0.0 0.0 0.0
0.898382502981 0.0996520103435 0.0
1.40210687344 2.01392134554e-05 0.0
1.42329375692 -0.00707401194336 0.0
1.01711255714 -0.0813146837057 0.0
0.0 0.0 0.0
0.0 0.0 0.0
0.0 0.0 0.0
0.0 0.0 0.0
0.0 0.0 0.0
0.0 0.0 0.0
0.0 0.0 0.0
0.0 0.0 0.0
0.0 0.0 0.0
0.0 0.0 0.0
0.0 0.0 0.0
0.0 0.0 0.0
0.0 0.0 0.0
0.0 0.0 0.0
0.0 0.0 0.0
0.0 0.0 0.0
0.0 0.0 0.0
0.0 0.0 0.0
0.0 0.0 0.0
0.0 0.0 0.0
0.0 0.0 0.0
0.0 0.0 0.0
0.0 0.0 0.0
0.0 0.0 0.0
0.0 0.0 0.0
0.0 0.0 0.0
0.0 0.0 0.0
0.0 0.0 0.0
0.0 0.0 0.0
0.0 0.0 0.0
0.0 0.0 0.0
0.0 0.0 0.0
0.0 0.0 0.0
0.0 0.0 0.0
0.0 0.0 0.0
0.0 0.0 0.0
0.0 0.0 0.0
0.0 0.0 0.0
0.0 0.0 0.0
0.0 0.0 0.0
0.0 0.0 0.0
0.0 0.0 0.0
0.0 0.0 0.0
0.0 0.0 0.0
0.0 0.0 0.0
0.0 0.0 0.0
0.0 0.0 0.0
0.0 0.0 0.0
0.0 0.0 0.0
1.0 0.0 0.0
1.0 0.0 0.0
1.0 0.0 0.0
1.0 0.0 0.0
1.23841556387 -0.0543827519157 0.0
1.46637893725 -0.0380149340797 0.0
1.43824241517 -0.0177816054373 0.0
1.35805769334 -0.0309216576838 0.0
1.43641492668 0.031803389278 0.0
1.41241207487 0.0311104619993 0.0
1.38005481391 0.0157086920463 0.0
1.43410966402 0.00154178611339 0.0
1.40707965241 -0.0317695142638 0.0
1.41200416548 -0.0272201706869 0.0
1.43010771822 0.00228846728469 0.0
1.39932722501 0.0187606282368 0.0
1.40451603548 0.0233146764796 0.0
1.45931314792 0.024215711392 0.0
1.45862650586 -0.0240180047315 0.0
1.50902093365 -0.020628216267 0.0
1.29480870978 0.00392198525967 0.0
1.09420074818 -0.0859853315209 0.0
1.3582353871 0.00996531678918 0.0
1.3627921033 0.0307430371256 0.0
1.31251272151 0.0287288225715 0.0
1.35524532663 -0.0218954029706 0.0
1.38971048167 -0.0109703891203 0.0
1.35148505476 0.0300215303055 0.0
1.37925194382 0.0502140360843 0.0
1.39897516631 -0.0153994005997 0.0
1.35001893891 -0.0292444066916 0.0
1.32434376953 -0.0489388664599 0.0
1.24347303187 -0.0675562708261 0.0
1.33669424838 0.0290281256044 0.0
1.38579686741 0.010645340531 0.0
1.27974881145 0.00968860956661 0.0
1.29958351637 0.00531833959009 0.0
1.34106835725 -0.0205407846897 0.0
1.37149049416 -0.049230519645 0.0
1.22585398455 -0.00319373281583 0.0
1.24924966433 0.0327350029037 0.0
1.26144861395 0.0407081122421 0.0
1.23821871583 0.046585675824 0.0
1.28938983443 0.0272360077471 0.0
1.2757224254 -0.0234877290645 0.0
1.20992098783 -0.013094912134 0.0
1.19747196973 -0.0153218815153 0.0
1.27874492727 -0.030887452933 0.0
1.18305843496 0.113206108758 0.0
1.26298421446 -0.0150356099245 0.0
1.24040403416 0.00778100159089 0.0
1.27904459573 -0.040019536312 0.0
1.29387533945 0.0296423357675 0.0
1.24835110007 -0.0625772404254 0.0
1.12810935239 -0.0881616682135 0.0
1.23604772542 -0.0390100631573 0.0
1.14279925655 -0.0238408184992 0.0
1.17565248353 -0.0476854705735 0.0
1.23195441037 -0.0137978823562 0.0
1.18648039108 -0.00628825793341 0.0
1.2509716469 -0.000823015442739 0.0
1.0729845247 -0.0389363370765 0.0
1.14009955122 0.0355527803007 0.0
1.16986255337 0.0348898883802 0.0
1.19864672962 0.049741010282 0.0
1.2074322869 0.0369821521654 0.0
1.15641209069 0.00210289906546 0.0
1.27061835274 0.00510582006658 0.0
1.22432157718 -0.0280951046334 0.0
1.19173234706 -0.0454305640578 0.0
1.21432476628 0.0363070820954 0.0
1.17500268193 0.00351449323213 0.0
0.852376004923 0.0116706817394 0.0
1.01309108194 0.0102978382316 0.0
0.934445177757 -0.0461632734895 0.0
0.934010104299 -0.0452255562405 0.0
0.998621343668 0.0136557961149 0.0
0.868771575143 0.0187763119344 0.0
0.880773033212 0.0321655741657 0.0
0.872206450011 0.0404017167331 0.0
0.775177821388 -0.0317126016859 0.0
0.871185703824 -0.023725953375 0.0
1.23518537475 0.0265657091217 0.0
1.04633076138 -0.0443519024049 0.0
0.962401604803 0.0412562597406 0.0
1.17486297534 -0.0263416184695 0.0
1.01789489372 0.0138930830734 0.0
1.47490266217 -0.00937851611462 0.0
0.780922309893 -0.0101558423408 0.0
1.15318382142 0.0570671645071 0.0
1.48314163416 -0.0225602909076 0.0
1.13541570368 -0.0173471735266 0.0
0.877895483571 -0.0132741227767 0.0
0.960916919039 -0.0758194121164 0.0
0.80599280866 -0.0465968719694 0.0
1.08315323143 -0.092279688593 0.0
0.885130533678 0.0111637333895 0.0
1.02812333449 0.0497642824106 0.0
0.948423053977 -0.0536009110875 0.0
1.0144790084 -0.0200408294457 0.0
0.915510496754 -0.0511950049698 0.0
0.96970919507 -0.0323662705388 0.0
1.00958288767 -0.00245658878587 0.0
0.878760303721 0.00313051518168 0.0
0.925622652521 0.0429027942384 0.0
0.987691013779 0.0257797767404 0.0
0.969429263237 0.0569931853984 0.0
0.783174887466 -0.00972819690269 0.0
0.927816112876 -0.00813343377473 0.0
0.853438572199 -0.0337633466671 0.0
0.907540307643 -0.0764351172931 0.0
0.899968264748 -0.0648151485828 0.0
0.903669285902 -0.0612822809745 0.0
0.779478462689 0.0292658883095 0.0
0.911158941251 0.00466160570559 0.0
1.46522078564 -0.00621931499056 0.0
1.46932001367 -0.0202455105913 0.0
0.861990862992 0.0257829902758 0.0
0.749273157843 0.034517914762 0.0
1.48795804396 0.0220123116774 0.0
1.45631162645 0.0308321184396 0.0
0.763779221056 -0.032915509628 0.0
0.8618478131 -0.0378610690823 0.0
0.887698203983 -0.0168917280471 0.0
0.735740784396 -0.00126741975307 0.0
0.793076236831 0.0359876047744 0.0
0.82388409344 0.0455139728768 0.0
0.745591803396 -0.0153071719056 0.0
1.48493188537 -0.0285963800795 0.0
1.46654163962 -0.032523883258 0.0
1.46922146719 0.0123258477893 0.0
1.4884651325 -0.0188173923536 0.0
1.47250959481 0.0335809710713 0.0
1.47810258201 0.0223871158248 0.0
1.47447303239 -0.0109145824317 0.0
1.47404994731 -0.00399780925364 0.0
1.41596521457 0.00266002265576 0.0
1.35231596705 -0.0427744770718 0.0
1.31777950514 -0.0481051945959 0.0
1.48589936019 -0.03689433696 0.0
1.48394071373 -0.0520848760512 0.0
1.46073313612 0.0166035422665 0.0
1.44657541916 0.0238858832412 0.0
1.48866971118 0.0217161747716 0.0
1.44796368031 0.0478389719145 0.0
1.47259804062 0.0261385880755 0.0
1.46295465671 0.0297023699876 0.0
1.45624226604 0.0293223668556 0.0
1.46428394066 -0.0189627038981 0.0
1.45364859894 -0.0311008616149 0.0
1.44295414131 0.0118560238727 0.0
1.46800242013 -0.0270766390195 0.0
0.729133440969 0.00880732750608 0.0
0.841641543511 0.0362595139998 0.0
0.766494777521 0.034343746828 0.0
0.826815021201 0.0601236230664 0.0
0.838757172616 0.0249102768648 0.0
0.860682328849 -0.0352614846681 0.0
0.763896455669 -0.0295720458195 0.0
0.7297888209 -0.00585005086464 0.0
0.891633830261 -0.0214163861081 0.0
0.925571091679 0.00550668019217 0.0
0.843457542258 -0.0343781660349 0.0
1.18715673323 0.241120358689 0.0
0.846408235426 0.00682074660845 0.0
0.870858352905 -0.0359534110313 0.0
1.0715378869 -0.0483154351941 0.0
1.35959800437 -0.0365060639827 0.0
1.17685007746 -0.0990707804452 0.0
0.824359252365 0.00744815239681 0.0
0.89746659107 0.015177456959 0.0
0.818436105718 0.0473819210248 0.0
0.89028671084 0.0435895384875 0.0
0.827336408949 0.0691203491316 0.0
0.872387221074 -0.0105563982775 0.0
0.773888580703 -0.0171694623747 0.0
0.91459876126 -0.0330917348778 0.0
0.892592404293 -0.0156363263269 0.0
0.782864467837 -0.0312587847955 0.0
1.41299380164 -0.0263858488843 0.0
1.35299670546 -0.00898493167439 0.0
0.82396585448 0.0307993758091 0.0
1.42143701598 0.0342594921709 0.0
1.38802250741 0.033234313389 0.0
0.864752291222 -0.0450354981927 0.0
0.896234267468 0.0792133139016 0.0
1.4437340718 0.0249384051738 0.0
1.39860772385 0.0132709609548 0.0
0.90435572359 0.00496704345693 0.0
0.815953024528 -5.58129746511e-05 0.0
1.42946777482 -0.0321397039979 0.0
1.418803 -0.026065459397 0.0
1.43552214972 0.0233147071124 0.0
1.40558203977 -0.00973850891713 0.0
0.825325970815 -0.0255383679681 0.0
1.43008735873 0.0225578179308 0.0
1.33415242055 0.0454931088778 0.0
1.37754514412 -0.0570644735375 0.0
1.26878077411 0.00524672924235 0.0
1.28267067411 -0.0294890379604 0.0
1.24491007643 -0.0167031289629 0.0
1.25355043122 0.0414316441269 0.0
1.29113007925 0.0330535045015 0.0
1.29843593221 0.0118309581385 0.0
1.21802896843 0.0386600757249 0.0
1.23162233541 -0.00134634748426 0.0
1.30023720788 -0.00471747840194 0.0
1.23368367932 -0.0249745859996 0.0
1.28014988973 -0.0440059506263 0.0
1.29123376815 -0.0376351304517 0.0
1.25156880752 -0.0459468596553 0.0
1.23750881092 0.0119798694647 0.0
1.27054783089 0.0268179452496 0.0
1.29046620542 0.0374197725833 0.0
1.29350726826 0.0248007858802 0.0
1.27055162297 0.0164433605194 0.0
1.21496665705 -0.0808021502836 0.0
1.33840201829 -0.0316773180999 0.0
1.28355961548 0.0167011427327 0.0
1.25653915378 0.0374370586338 0.0
1.27607379462 -0.0435080192735 0.0
1.24072262473 -0.0206111965757 0.0
1.27061768846 0.0394666024969 0.0
1.3415944173 -0.0236868725766 0.0
1.20820599306 -0.00760331371397 0.0
1.3051318559 -0.0102963281237 0.0
1.33506704545 -0.0223005137715 0.0
1.34800744325 -0.0183643474396 0.0
0.931553345218 -0.143647061646 0.0
1.33238895186 0.00889327835553 0.0
1.28397009123 -0.0173307416627 0.0
1.48780029447 -0.0361383044108 0.0
1.49193170754 -0.00445482705065 0.0
1.3058624848 0.00111875394876 0.0
1.04387141109 0.109111715473 0.0
0.673373459339 -0.00312300186937 0.0
1.17234486065 0.172167398326 0.0
1.03310050465 -0.063421784972 0.0
1.30595477344 -0.000839505218526 0.0
1.35388151974 -0.0349937108614 0.0
1.29667883198 -0.00294912940418 0.0
1.46166046832 -0.0183495270157 0.0
1.38915641383 0.0205198782775 0.0
0.829768717758 0.1165997181 0.0
0.730629003258 0.0497665324826 0.0
1.03732799035 -0.0940647323581 0.0
0.90937267077 -0.0978836777166 0.0
1.45495291667 0.0219279103544 0.0
1.43236603707 0.0559391859585 0.0
0.719873797075 0.0537618796147 0.0
0.621829905281 0.020906243218 0.0
0.720024811825 0.00787065355241 0.0
1.47342095934 0.0215737092669 0.0
1.45007009849 -0.0252991794956 0.0
1.45508537211 -0.0248539287843 0.0
1.420256759 0.0373240400695 0.0
1.46283171239 -0.0163017982383 0.0
1.46621630246 -0.0362180095531 0.0
1.45408629241 0.0260141355132 0.0
1.46639408889 0.0290816779204 0.0
0.646694479808 -0.0240363842417 0.0
0.687028150465 -0.0457357460056 0.0
1.47364306728 0.023772541918 0.0
0.770823866452 0.0177591342279 0.0
0.599077703546 -0.0117722108677 0.0
0.688696722512 0.0479440396089 0.0
0.698035699693 0.0328340327178 0.0
0.731303779627 -0.0451697775046 0.0
0.715476156067 -0.0482327442273 0.0
0.617003217916 -0.0173174078907 0.0
0.742495766271 -0.0461004928326 0.0
0.710978007269 0.0155653963511 0.0
0.724873855323 -0.0426434787773 0.0
0.600700629707 0.0346723445676 0.0
0.68210438439 0.0255408732484 0.0
0.4990824494 0.0484839074532 0.0
1.07776018521 0.0178493034418 0.0
0.866295585323 -0.0343612275869 0.0
0.554766434231 0.00394904115564 0.0

SCALARS scalar1 double
LOOKUP_TABLE default
3.61812801534
6.5977513101
4.44582331682
4.7058618239
-6.02853329293
-2.32475077728
8.89794620246
8.05269709513
5.98054843069
5.64096969613
5.81398788975
6.52528258242
7.14900398558
6.72358556117
5.93003492704
4.89330930019
4.45112265473
4.42820464416
4.59063006423
5.37609612843
6.08570573512
6.89587776267
6.95605173062
6.53850287024
5.76615526184
4.99656699858
4.42804226681
4.3498569924
4.82569433091
5.18539332343
7.28270732778
5.07958990377
8.52484598207
6.64666779792
6.28033940342
5.1945730692
4.51267390077
4.42742147099
4.50382981944
5.2203165306
5.97152344469
6.79317758948
6.95979982208
6.57694844468
5.8369114021
5.19441609395
4.24132498503
4.48224552891
5.01979979527
5.59557264233
6.44567303161
6.71868890954
7.14620640028
5.85983537801
3.61409050418
1.33961987277
-0.97663877033
-3.18439435327
-5.36491273763
-4.96937213157
-4.31742769547
-4.41676241409
-5.48190779381
-6.03005905239
-7.30043361911
-6.87810760109
-6.37735504358
-5.89482054485
-5.06282210457
-4.3595594704
-4.49636203317
-4.93165521054
-5.23841838096
-6.45311195082
-6.89217209782
-6.84041065792
-6.82231458338
-7.39743316987
-4.20140581761
-4.71458568571
-4.67428639947
-5.00491877545
-5.64885631041
-5.40349037071
-8.59557439006
-7.17499139059
-6.24216928946
-5.82010036164
-5.01423610144
-4.34490145736
-4.59611284836
-4.87534304607
-5.35773048038
-6.34123610717
-7.27637194825
-6.86389654539
-6.67689148019
-6.15531128131
-5.14031588021
-5.11726126153
-5.41356162984
-5.49866650199
-6.65992715696
-7.60817118562
-9.22547703981
-11.5783562243
-12.4398285012
3.43173090386
0.0841538500489
-0.021747673241
-1.77637018392
0.0386183226334
0.495718967849
0.773154729228
0.618149405209
0.836843079587
0.812673707915
1.18611277174
0.9642888413
1.11398584574
1.06878559458
1.03769646008
1.04979161516
1.11918239549
0.245941663048
0.346690396128
0.137129839073
2.24713442847
-0.579806408101
-1.67328812017
-1.4671723989
-1.76606262912
-1.59490892825
-1.38406216408
-1.59616204001
-1.24737326204
-1.32546936824
-1.59956405027
1.88877733926
1.1617415336
-1.20738090069
-1.49260254841
2.20251009452
1.62490604567
-0.206915909211
-1.62431914655
2.3408948811
2.30342850003
2.18145012303
2.20699628948
2.16562746437
2.11167080052
2.37509673502
2.36983484617
2.10509417743
1.14878588909
-2.31900772058
-2.18826406033
-2.06384132553
1.85618596017
2.08333444997
1.55994087757
2.49059630359
2.80537527434
2.09039702854
-2.50950821902
-2.18044535759
-1.59088481023
-3.19635419034
2.97167581783
2.57252263649
-2.46213428361
-2.39156971175
-2.64594528053
-2.21298234351
-2.51073460163
-2.57929429186
-2.40722138288
-2.57608058819
3.52224509329
3.65836766505
3.50379416226
3.51602425884
3.68172804647
3.60726959539
3.59706744432
4.00298738818
3.81851553562
-3.59474094625
-2.41386503119
-3.00061796141
-2.92970112103
2.29211618081
0.00264151267769
0.0890700411574
-3.75768356156
-3.40686189109
0.137650479007
-0.0431314062829
4.16403373962
2.99406083297
4.04853506374
0.00455201450861
-3.45035961314
-3.55364998548
-3.66478137784
-3.15704207058
-3.56814625735
-3.62072150083
-3.65427942354
-3.57798881743
-3.57159191676
-3.63090088113
-3.511334018
3.70193314806
3.76938945571
3.57411952336
3.37535775747
3.18420786379
3.70787757499
3.73229411034
3.76965655538
-0.0246327852042
0.0371776165786
4.07651293188
3.73470641901
0.519949070883
0.634085013186
3.76532774813
4.03345114194
4.19171447534
3.75373992137
3.93677375288
3.97392015014
3.79576730615
0.572616145894
0.698599652763
0.583824931728
0.620785648258
0.292727296251
0.620245068746
0.396939991474
0.471926172122
0.493584100619
0.327884191281
0.2071161183
0.340551963933
0.250604575081
0.566122190343
0.452677042205
0.421118487868
0.594231759812
0.526075477521
0.677689926819
0.474801000213
0.683380738199
0.679471158328
0.756275469706
0.629622039615
3.73537601917
4.10835571512
3.89631609383
3.79014099446
3.88469669161
4.07127230548
3.79443306884
3.69776240657
4.16812565663
-3.7135643796
-3.48811622213
0.0564257812855
-3.78302580125
-3.68835116008
-3.19201198216
1.81558643994
-0.201830701833
-3.84011081001
-4.31466593067
-3.79487175443
-3.88037736481
-4.10062115659
-4.45409423752
-3.78816475874
-4.17984241193
-4.14647769248
-3.83865953908
-1.25780080388
-0.275249873016
-3.71237128344
-1.15900316854
-0.890519921764
-3.64250373551
3.98742877556
-0.857919443491
-1.18293228347
4.28244264897
-3.64391016022
-1.02248102879
-1.14396131534
-1.06079210782
-1.14133695224
3.90288731857
-1.06943865183
-1.69124368124
-1.53480563723
2.02164750916
1.53473845556
2.21632286159
2.4181275024
2.02006943265
2.1070099677
2.34400537328
2.43236040428
2.0938094118
2.27305245878
2.20459670852
1.89551723264
1.19472442796
2.41446824211
1.97877357835
2.10849357313
1.68689159811
2.09465220827
0.971301833167
1.72824271238
2.20698438527
2.31246161382
2.21970916558
2.29703037459
0.505162133351
-1.77684038664
2.45656780544
2.07506137027
-1.52822263861
-1.49223351593
4.45685900745
1.83881668024
2.07225293876
0.646009564772
0.584832026873
-2.05261084007
1.51213529738
-4.05907397491
-4.56475825616
-1.01397474376
2.2846935019
-1.62511163152
0.134416708021
-0.837222197983
-0.193592295646
-3.78784797006
4.86408528979
2.97158845827
-4.48771365762
-0.783295780803
-0.539785380389
-4.87288829564
-3.86099820316
-4.77029907944
-0.526836247652
-0.721211610426
-1.10243038202
-1.20587384042
-0.652406453428
-0.663903438742
-0.678814370797
-0.785524995018
-4.1593381205
-4.46644775474
-0.771843120093
-5.0493101112
-3.91650470683
-4.15491995017
-4.40120624754
3.89035109786
4.93923116437
3.94252285656
4.69323856708
-4.01901713349
-4.9078551599
4.1499950391
4.70424832579
4.87918815602
1.74095007781
-5.32876321879
-3.88364619124

SCALARS scalar2 double
LOOKUP_TABLE default
3.61812801534
6.5977513101
4.44582331682
4.7058618239
-6.02853329293
-2.32475077728
8.89794620246
8.05269709513
5.98054843069
5.64096969613
5.81398788975
6.52528258242
7.14900398558
6.72358556117
5.93003492704
4.89330930019
4.45112265473
4.42820464416
4.59063006423
5.37609612843
6.08570573512
6.89587776267
6.95605173062
6.53850287024
5.76615526184
4.99656699858
4.42804226681
4.3498569924
4.82569433091
5.18539332343
7.28270732778
5.07958990377
8.52484598207
6.64666779792
6.28033940342
5.1945730692
4.51267390077
4.42742147099
4.50382981944
5.2203165306
5.97152344469
6.79317758948
6.95979982208
6.57694844468
5.8369114021
5.19441609395
4.24132498503
4.48224552891
5.01979979527
5.59557264233
6.44567303161
6.71868890954
7.14620640028
5.85983537801
3.61409050418
1.33961987277
-0.97663877033
-3.18439435327
-5.36491273763
-4.96937213157
-4.31742769547
-4.41676241409
-5.48190779381
-6.03005905239
-7.30043361911
-6.87810760109
-6.37735504358
-5.89482054485
-5.06282210457
-4.3595594704
-4.49636203317
-4.93165521054
-5.23841838096
-6.45311195082
-6.89217209782
-6.84041065792
-6.82231458338
-7.39743316987
-4.20140581761
-4.71458568571
-4.67428639947
-5.00491877545
-5.64885631041
-5.40349037071
-8.59557439006
-7.17499139059
-6.24216928946
-5.82010036164
-5.01423610144
-4.34490145736
-4.59611284836
-4.87534304607
-5.35773048038
-6.34123610717
-7.27637194825
-6.86389654539
-6.67689148019
-6.15531128131
-5.14031588021
-5.11726126153
-5.41356162984
-5.49866650199
-6.65992715696
-7.60817118562
-9.22547703981
-11.5783562243
-12.4398285012
3.43173090386
0.0841538500489
-0.021747673241
-1.77637018392
0.0386183226334
0.495718967849
0.773154729228
0.618149405209
0.836843079587
0.812673707915
1.18611277174
0.9642888413
1.11398584574
1.06878559458
1.03769646008
1.04979161516
1.11918239549
0.245941663048
0.346690396128
0.137129839073
2.24713442847
-0.579806408101
-1.67328812017
-1.4671723989
-1.76606262912
-1.59490892825
-1.38406216408
-1.59616204001
-1.24737326204
-1.32546936824
-1.59956405027
1.88877733926
1.1617415336
-1.20738090069
-1.49260254841
2.20251009452
1.62490604567
-0.206915909211
-1.62431914655
2.3408948811
2.30342850003
2.18145012303
2.20699628948
2.16562746437
2.11167080052
2.37509673502
2.36983484617
2.10509417743
1.14878588909
-2.31900772058
-2.18826406033
-2.06384132553
1.85618596017
2.08333444997
1.55994087757
2.49059630359
2.80537527434
2.09039702854
-2.50950821902
-2.18044535759
-1.59088481023
-3.19635419034
2.97167581783
2.57252263649
-2.46213428361
-2.39156971175
-2.64594528053
-2.21298234351
-2.51073460163
-2.57929429186
-2.40722138288
-2.57608058819
3.52224509329
3.65836766505
3.50379416226
3.51602425884
3.68172804647
3.60726959539
3.59706744432
4.00298738818
3.81851553562
-3.59474094625
-2.41386503119
-3.00061796141
-2.92970112103
2.29211618081
0.00264151267769
0.0890700411574
-3.75768356156
-3.40686189109
0.137650479007
-0.0431314062829
4.16403373962
2.99406083297
4.04853506374
0.00455201450861
-3.45035961314
-3.55364998548
-3.66478137784
-3.15704207058
-3.56814625735
-3.62072150083
-3.65427942354
-3.57798881743
-3.57159191676
-3.63090088113
-3.511334018
3.70193314806
3.76938945571
3.57411952336
3.37535775747
3.18420786379
3.70787757499
3.73229411034
3.76965655538
-0.0246327852042