# vtk DataFile Version 2.0
2D Simulation Python
ASCII
DATASET UNSTRUCTURED_GRID
FIELD FieldData 1
NODES 1 2 int
386 659

POINTS 386 double
0.0 1.0 0.0
1.725 0.9917131702036278 0.0
8.275 1.0082868297963719 0.0
10.0 1.0 0.0
10.0 -1.3346080967680959e-17 0.0
0.0 0.0 0.0
0.1916666666663293 1.0061726397389434 0.0
0.3833333333324708 1.0101740681235905 0.0
0.574999999998553 1.0105967922320236 0.0
0.7666666666645966 1.0072921198640297 0.0
0.9583333333312576 1.0014224616690062 0.0
1.149999999998384 0.9950524559634346 0.0
1.341666666665662 0.990422737111209 0.0
1.533333333332819 0.9891617977126458 0.0
1.92348484848444 0.9974055236691097 0.0
2.121969696968978 1.0040744086045057 0.0
2.320454545453434 1.009209732344444 0.0
2.518939393937826 1.0108786172671387 0.0
2.717424242422235 1.0084529140126364 0.0
2.915909090906411 1.0028456297787662 0.0
3.1143939393908 0.9961672827652476 0.0
3.312878787875129 0.9909315270563595 0.0
3.511363636359531 0.9891090417281126 0.0
3.709848484843827 0.9913857895913035 0.0
3.90833333332816 0.9969048285682615 0.0
4.106818181812215 1.0035888549732623 0.0
4.305303030296804 1.008922077063505 0.0
4.503787878781365 1.0108971305222727 0.0
4.702272727265711 1.008770627624544 0.0
4.900757575750005 1.003342959946756 0.0
5.099242424235156 0.9966570400537277 0.0
5.297727272720327 0.9912293723757386 0.0
5.496212121205663 0.9891028694777335 0.0
5.694696969690998 0.9910779229362546 0.0
5.89318181817668 0.9964111450263797 0.0
6.09166666666213 1.0030951714314194 0.0
6.290151515147423 1.0086142104085132 0.0
6.488636363633031 1.0108909582718795 0.0
6.687121212118713 1.0090684729437567 0.0
6.885606060604342 1.003832717234908 0.0
7.084090909089381 0.9971543702213733 0.0
7.282575757574369 0.9915470859874373 0.0
7.481060606059355 0.9891213827328657 0.0
7.679545454544343 0.9907902676555145 0.0
7.878030303029329 0.9959255913954396 0.0
8.076515151514705 1.0025944763308616 0.0
8.46666666666447 1.0108382022873446 0.0
8.658333333329285 1.0095772628888728 0.0
8.84999999999549 1.0049475440367537 0.0
9.041666666661694 0.9985775383312331 0.0
9.233333333327899 0.9927078801361613 0.0
9.42499999999549 0.9894032077680222 0.0
9.616666666663775 0.9898259318763641 0.0
9.808333333331985 0.9938273602610086 0.0
10.0 0.7999999999999998 0.0
10.0 0.6000000000013869 0.0
10.0 0.4000000000016644 0.0
10.0 0.2000000000008322 0.0
9.799999999999999 -0.006405626156183097 0.0
9.6 -0.010364520839929526 0.0
9.399999999999999 -0.010364520839929496 0.0
9.2 -0.006405626156183022 0.0
8.999999999999998 8.944572484506769e-17 0.0
8.799999999999997 0.006405626156183146 0.0
8.599999999999998 0.010364520839929548 0.0
8.399999999999997 0.010364520839929486 0.0
8.199999999999998 0.006405626156182995 0.0
7.999999999999997 -8.811111674829951e-17 0.0
7.799999999999997 -0.006405626156183146 0.0
7.599999999999998 -0.010364520839929548 0.0
7.399999999999997 -0.010364520839929486 0.0
7.199999999999998 -0.006405626156183019 0.0
6.999999999999997 8.677650865153151e-17 0.0
6.799999999999997 0.0064056261561831595 0.0
6.599999999999998 0.010364520839929548 0.0
6.399999999999997 0.010364520839929454 0.0
6.199999999999998 0.006405626156183011 0.0
5.999999999999997 -8.544190055476337e-17 0.0
5.799999999999998 -0.00640562615618313 0.0
5.599999999999998 -0.010364520839929548 0.0
5.399999999999999 -0.010364520839929527 0.0
5.199999999999998 -0.006405626156183011 0.0
4.999999999999999 4.539016647091801e-17 0.0
4.799999999999999 0.006405626156183063 0.0
4.599999999999999 0.010364520839929574 0.0
4.399999999999999 0.01036452083992949 0.0
4.199999999999999 0.006405626156183035 0.0
3.999999999999999 -4.4055558374149754e-17 0.0
3.799999999999999 -0.006405626156183069 0.0
3.599999999999999 -0.010364520839929538 0.0
3.399999999999998 -0.01036452083992949 0.0
3.199999999999998 -0.006405626156182974 0.0
2.999999999999999 4.2720950277381683e-17 0.0
2.799999999999998 0.0064056261561831074 0.0
2.599999999999998 0.010364520839929576 0.0
2.399999999999999 0.01036452083992951 0.0
2.199999999999999 0.006405626156183012 0.0
1.999999999999998 -7.042418667092171e-17 0.0
1.799999999999999 -0.006405626156183104 0.0
1.6 -0.010364520839929508 0.0
1.4 -0.010364520839929508 0.0
1.199999999999999 -0.0064056261561830094 0.0
0.9999999999999982 6.424993782576897e-17 0.0
0.7999999999999989 0.006405626156183104 0.0
0.6000000000000014 0.010364520839929505 0.0
0.3999999999999986 0.010364520839929505 0.0
0.1999999999999993 0.0064056261561830224 0.0
0.0 0.1999999999995579 0.0
0.0 0.3999999999989749 0.0
0.0 0.5999999999989468 0.0
0.0 0.7999999999994734 0.0
0.6588466721624358 0.5522945707103559 0.0
9.341152799472075 0.5396437737817711 0.0
8.741432843918421 0.5729659256317985 0.0
1.2585641980165572 0.5619576765544969 0.0
8.1628414501199 0.5761773656827798 0.0
1.837143349818039 0.5694295787734862 0.0
2.430441360776253 0.6050043764037654 0.0
7.569477443409017 0.5906056083609071 0.0
3.030492246418805 0.6014778160979104 0.0
6.969026184855758 0.6009667192151451 0.0
3.628663898834002 0.5945204711393393 0.0
6.367982669877799 0.5970155034054926 0.0
4.229400771716559 0.595983570657552 0.0
5.795134235639534 0.522329486773965 0.0
4.802478518880033 0.5324340802261868 0.0
5.298820266746643 0.5127292620270208 0.0
9.677454509482239 0.6950373959832636 0.0
0.32254534914501626 0.7059764833232189 0.0
4.530525394772914 0.34490994523460144 0.0
3.9188227626306062 0.37063635241237836 0.0
6.067964737194879 0.3390805061190171 0.0
3.319411585749687 0.37144597233774956 0.0
6.679655353699225 0.377014127765265 0.0
7.878986044487238 0.3650325488999238 0.0
2.12098239893942 0.36983056659156266 0.0
2.720110294886627 0.3806089583445267 0.0
7.279714263272086 0.36983683262105593 0.0
9.037270241746109 0.6717252019343021 0.0
0.9627286494734132 0.6733551715555488 0.0
1.5320838478756778 0.35422310433388116 0.0
8.467910220544681 0.36646783251112963 0.0
8.45829414279604 0.6868391122329943 0.0
1.5417001682801392 0.673164114321661 0.0
0.9793998675292374 0.36588669276449837 0.0
9.020598892101097 0.3647608394773957 0.0
4.527199775129427 0.6975096445370027 0.0
3.92140259710837 0.7000033084856121 0.0
6.069685660358859 0.691270307692904 0.0
2.1183770002010553 0.6945159697606544 0.0
7.881594499780038 0.6893087279526097 0.0
3.3233611531213385 0.6990633404222322 0.0
6.675556617947564 0.7072534548229581 0.0
2.725371164277282 0.7094860956190046 0.0
7.274462755620662 0.6980359128149133 0.0
0.3328395781107534 0.3088599286876405 0.0
9.667160267580012 0.2984051590257068 0.0
5.581324219997014 0.3136937114227834 0.0
5.017220607390399 0.3206813222700726 0.0
5.509457727606705 0.6864287160500994 0.0
5.087392122016964 0.6918606304870676 0.0
0.6619005093888315 0.7412336664439081 0.0
9.33809909471365 0.7298737799837544 0.0
8.747624310951796 0.7447629595763218 0.0
1.2523735192469114 0.7353329575438862 0.0
8.670387985287837 0.28108412411169353 0.0
1.329609119768986 0.27111781134085805 0.0
0.6804015937504678 0.24207638885773636 0.0
9.319598013571879 0.23177306085049376 0.0
8.169907996916574 0.74804612854479 0.0
1.8300810439926924 0.7417335145664158 0.0
8.082241617234157 0.27941497808080984 0.0
1.9177431317569125 0.2768612183249138 0.0
7.485180592142915 0.2795073959138154 0.0
2.5147355678368086 0.29163350591051657 0.0
6.885160963529008 0.28772546694952483 0.0
3.114404868172721 0.2859670631814572 0.0
6.284935231349236 0.2751827749186626 0.0
3.7137890439548675 0.28174522331344937 0.0
2.422449309112725 0.8191853643744325 0.0
7.577503963962595 0.8049371889289336 0.0
3.021605110967345 0.814424642888021 0.0
6.978106160447727 0.8143298304508445 0.0
3.6184596492947403 0.8075645642278978 0.0
6.379474968969427 0.8162635068170063 0.0
4.216884897066402 0.8144699631983446 0.0
5.793598400133974 0.8383092746101687 0.0
4.802574982296792 0.8472888795563099 0.0
5.2995793242084055 0.17932440078819356 0.0
4.313878968222627 0.2762129303691827 0.0
4.743204933907571 0.2430026623886909 0.0
5.855724986023478 0.23424971542534562 0.0
5.298372066437598 0.7105388621906562 0.0
0.19483726775976715 0.5060377935710585 0.0
9.805162635638478 0.49822935771130583 0.0
9.486963243164137 0.15560565558691675 0.0
0.5130365845851004 0.1690791409408342 0.0
9.56892552117172 0.5054573400712556 0.0
0.43107421501976 0.5189623542225072 0.0
9.509138635939696 0.8293312213716436 0.0
0.49086120528890687 0.8433720832536401 0.0
9.823684716683504 0.824147473056697 0.0
0.17631523677445454 0.8313316899715533 0.0
7.690675621656031 0.18724826235106856 0.0
2.309290976043486 0.1981815955368579 0.0
8.876663735270231 0.19417633744716506 0.0
1.123335073300797 0.1894466727467255 0.0
7.090880438817625 0.1928585110963151 0.0
2.908943048045826 0.19752813768808233 0.0
6.491076251564213 0.1960648224728047 0.0
3.508532326694487 0.18896971204858076 0.0
1.7133214029422865 0.18316075928639852 0.0
8.286672452431834 0.19311505545630248 0.0
4.108122729058465 0.1921293321187184 0.0
8.577560101822412 0.8354662801202597 0.0
1.4224373956335643 0.8217029219758423 0.0
8.92333297666398 0.827957915785553 0.0
1.076666070589738 0.8246418985718723 0.0
0.8418681022661747 0.8282598286834155 0.0
9.158131416728345 0.8215594375507798 0.0
8.345850371713249 0.8359325370635944 0.0
1.654144790062177 0.8235000060577065 0.0
5.5924490903679445 0.4961491706407228 0.0
5.005265140550493 0.503921167068191 0.0
7.789405108109419 0.8348802776469537 0.0
2.210572817819361 0.8439110156840675 0.0
7.776865076989889 0.5471887263116046 0.0
2.22308867341097 0.556772928241963 0.0
2.8152765744184864 0.8488346104903578 0.0
7.184590602260822 0.8401875516492467 0.0
3.4120552053282696 0.8379269818349424 0.0
6.587034817289951 0.8494063716813286 0.0
4.0092023350513255 0.8427935954157737 0.0
5.984832283933825 0.8426034253143003 0.0
4.611344717672911 0.850187812283202 0.0
7.175166163341649 0.5556309847124303 0.0
2.8245670238630822 0.5645705307862462 0.0
6.575204015942507 0.5615501391820235 0.0
3.423088906959845 0.5539942340361689 0.0
5.978030920095777 0.5300459677065897 0.0
4.022408006464637 0.5555581773925767 0.0
4.6195755378290775 0.5386907052224813 0.0
8.548997314188467 0.5479486528359501 0.0
[...]
POINT_DATA 386
VECTORS vector double
1.0 0.0 0.0
0.0 0.0 0.0
0.0 0.0 0.0
0.0 0.0 0.0
0.0 0.0 0.0
1.0 0.0 0.0
0.0 0.0 0.0
0.0 0.0 0.0
0.0 0.0 0.0
0.0 0.0 0.0
0.0 0.0 0.0
0.0 0.0 0.0
0.0 0.0 0.0
0.0 0.0 0.0
0.0 0.0 0.0
0.0 0.0 0.0
0.0 0.0 0.0
0.0 0.0 0.0
0.0 0.0 0.0
0.0 0.0 0.0
0.0 0.0 0.0
0.0 0.0 0.0
0.0 0.0 0.0
0.0 0.0 0.0
0.0 0.0 0.0
0.0 0.0 0.0
0.0 0.0 0.0
0.0 0.0 0.0
0.0 0.0 0.0
0.0 0.0 0.0
0.0 0.0 0.0
0.0 0.0 0.0
0.0 0.0 0.0
0.0 0.0 0.0
0.0 0.0 0.0
0.0 0.0 0.0
0.0 0.0 0.0
0.0 0.0 0.0
0.0 0.0 0.0
0.0 0.0 0.0
0.0 0.0 0.0
0.0 0.0 0.0
0.0 0.0 0.0
0.0 0.0 0.0
0.0 0.0 0.0
0.0 0.0 0.0
0.0 0.0 0.0
0.0 0.0 0.0
0.0 0.0 0.0
0.0 0.0 0.0
0.0 0.0 0.0
0.0 0.0 0.0
0.0 0.0 0.0
0.0 0.0 0.0
0.899515776819 0.094775516757 0.0
1.40011021846 0.00314724158833 0.0
1.42311793952 -0.00612963857401 0.0
1.00846815846 -0.0874385188671 0.0
0.0 0.0 0.0
0.0 0.0 0.0
0.0 0.0 0.0
0.0 0.0 0.0
0.0 0.0 0.0
0.0 0.0 0.0
0.0 0.0 0.0
0.0 0.0 0.0
0.0 0.0 0.0
0.0 0.0 0.0
0.0 0.0 0.0
0.0 0.0 0.0
0.0 0.0 0.0
0.0 0.0 0.0
0.0 0.0 0.0
0.0 0.0 0.0
0.0 0.0 0.0
0.0 0.0 0.0
0.0 0.0 0.0
0.0 0.0 0.0
0.0 0.0 0.0
0.0 0.0 0.0
0.0 0.0 0.0
0.0 0.0 0.0
0.0 0.0 0.0
0.0 0.0 0.0
0.0 0.0 0.0
0.0 0.0 0.0
0.0 0.0 0.0
0.0 0.0 0.0
0.0 0.0 0.0
0.0 0.0 0.0
0.0 0.0 0.0
0.0 0.0 0.0
0.0 0.0 0.0
0.0 0.0 0.0
0.0 0.0 0.0
0.0 0.0 0.0
0.0 0.0 0.0
0.0 0.0 0.0
0.0 0.0 0.0
0.0 0.0 0.0
0.0 0.0 0.0
0.0 0.0 0.0
0.0 0.0 0.0
0.0 0.0 0.0
0.0 0.0 0.0
0.0 0.0 0.0
0.0 0.0 0.0
1.0 0.0 0.0
1.0 0.0 0.0
1.0 0.0 0.0
1.0 0.0 0.0
1.23515009548 -0.0391374345922 0.0
1.46187210414 -0.0362867203768 0.0
1.43992057485 -0.0106685922216 0.0
1.35517526727 -0.0290120068136 0.0
1.43789756632 0.0283458594495 0.0
1.40967387441 0.0252467907168 0.0
1.38903297135 0.016963252895 0.0
1.42281462278 -0.00444320229252 0.0
1.40245224689 -0.0269736128312 0.0
1.40621482851 -0.0212396224147 0.0
1.42036164353 -0.00350562876127 0.0
1.40713921701 0.0191602144101 0.0
1.40894894532 0.0207956308344 0.0
1.45664758573 0.0179563832769 0.0
1.45695337775 -0.0163877350668 0.0
1.49489347096 -0.0173361677599 0.0
1.26809035855 -0.00148536128484 0.0
1.10798047974 -0.0930130461368 0.0
1.33574231601 0.0143005961686 0.0
1.36192168671 0.0212102081343 0.0
1.30791048991 0.0209361707118 0.0
1.36583869151 -0.0214118289354 0.0
1.37916428779 -0.00475118989081 0.0
1.3578251004 0.0217770742844 0.0
1.36808127544 0.0421095646051 0.0
1.39181239805 -0.00603619385694 0.0
1.36635332852 -0.0270286412509 0.0
1.31431682756 -0.0351801110179 0.0
1.23749035406 -0.054333563286 0.0
1.34572112606 0.0232595765477 0.0
1.3675815382 0.0137122268671 0.0
1.29345667075 0.00993638601443 0.0
1.28038777409 -0.00132831844547 0.0
1.34586321061 -0.00616605932822 0.0
1.37913173671 -0.0387624106166 0.0
1.24745535302 -0.00121694762133 0.0
1.24370544631 0.0265932740229 0.0
1.27040083292 0.0333847955651 0.0
1.24913856359 0.0387608139662 0.0
1.28004355351 0.0191830665207 0.0
1.24487167679 -0.023621766813 0.0
1.22728805961 -0.00904310203597 0.0
1.21564861295 -0.00883102973775 0.0
1.24773617026 -0.0287763179951 0.0
1.15876438934 0.116025819536 0.0
1.28703399197 -0.0190917741837 0.0
1.2627369345 0.00265924484221 0.0
1.2819411579 -0.0269796009875 0.0
1.24491363721 0.0201050488149 0.0
1.23082827163 -0.0496102864665 0.0
1.14803405 -0.0690645286287 0.0
1.19346295263 -0.034473620674 0.0
1.16300868139 -0.0133773283218 0.0
1.14365197 -0.0413308388345 0.0
1.19900920309 0.000118427160488 0.0
1.22024381907 -0.00792410293224 0.0
1.21879316692 0.0219979314204 0.0
1.11510950508 -0.0346260731052 0.0
1.15874711691 0.0286036655707 0.0
1.15023797675 0.0209678192906 0.0
1.19257456727 0.0387607494596 0.0
1.20776089991 0.0274693175318 0.0
1.19307103206 -0.00348741325069 0.0
1.22972115746 0.00988459173976 0.0
1.21301904068 -0.0156290930116 0.0
1.21099617611 -0.0411606891115 0.0
1.18715098518 0.0303737796359 0.0
1.19782481509 -0.00264715822176 0.0
0.916755455962 0.0119247916347 0.0
0.935479594 -0.000983443110355 0.0
0.937440786312 -0.0271349575676 0.0
0.940774023971 -0.0262539337324 0.0
0.924940543226 0.000209449987547 0.0
0.930994107921 0.0164917231655 0.0
0.917383145249 0.0239731420828 0.0
0.82363625322 0.0162621468389 0.0
0.819860520613 -0.0162556861269 0.0
0.922582825521 -0.0175233539615 0.0
1.19305049561 0.0227286781904 0.0
1.0104128845 -0.0415629413785 0.0
0.992667056702 0.0383367385583 0.0
1.13143900665 -0.0140274171224 0.0
1.01082087987 0.00155323318156 0.0
1.47507866616 -0.0106952506055 0.0
0.84817981691 -0.012327155465 0.0
1.08713922082 0.0759307815774 0.0
1.48281329112 -0.020904146206 0.0
1.13553735458 -0.0105278576987 0.0
0.802394269943 -0.017134486007 0.0
1.02132180814 -0.0612260926188 0.0
0.765428012462 -0.0492059810797 0.0
1.11333169649 -0.150708779865 0.0
0.942039894985 0.00119775351694 0.0
0.9747448119 0.0377609360907 0.0
0.922256064165 -0.0348717255158 0.0
1.03307559686 -0.00318716352663 0.0
0.933747989246 -0.0378358275834 0.0
0.946335893605 -0.0151919000496 0.0
0.942166119811 -0.000765191951463 0.0
0.943426723655 0.00126354593195 0.0
0.981504514522 0.0326077243563 0.0
0.939487826083 0.0147799490147 0.0
0.954564808954 0.0381985457008 0.0
0.847222848292 -0.00611868511713 0.0
0.860160862291 -0.0113402464636 0.0
0.872259885291 -0.0150440320946 0.0
0.90089787411 -0.0565640551413 0.0
0.939520713499 -0.0451690451529 0.0
0.874260895803 -0.0427632939332 0.0
0.836721691085 0.027564656427 0.0
0.84414949566 -0.0067923522838 0.0
1.46151305527 -0.0108311909857 0.0
1.46534164206 -0.0101495845824 0.0
0.79948440028 0.011046721932 0.0
0.795083314566 0.0292194371252 0.0
1.4863521964 0.0189545538414 0.0
1.45927431297 0.0294555613658 0.0
0.812013622075 -0.0189052890392 0.0
0.824573436426 -0.0239230832489 0.0
0.809906029873 -0.0198415149874 0.0
0.809461732825 0.00145795332397 0.0
0.787575072648 0.0232680922516 0.0
0.81834275565 0.0307689044106 0.0
0.812306611477 -0.00672920977282 0.0
1.47870012056 -0.0229615171551 0.0
1.46970536482 -0.0257230208311 0.0
1.47417888777 0.0113304040764 0.0
1.48008331224 -0.0236164305095 0.0
1.47141587614 0.0256780591652 0.0
1.47855783635 0.0178668511783 0.0
1.4762434752 -0.00734267036531 0.0
1.4759645583 -0.000222942032497 0.0
1.4123076015 -0.000404785645646 0.0
1.35043431065 -0.0362985981232 0.0
1.31455510747 -0.0360461022817 0.0
1.4862700111 -0.0296068735877 0.0
1.48301975081 -0.0469073549933 0.0
1.46284089609 0.0132926929505 0.0
1.44140835184 0.0181987810023 0.0
1.49163139752 0.0190793228811 0.0
1.44773624248 0.0419905253148 0.0
1.47213195017 0.0222703052025 0.0
1.46266447855 0.0264755777581 0.0
1.45792452645 0.0259174228978 0.0
1.45800647744 -0.0158967128315 0.0
1.45668795985 -0.0266077584592 0.0
1.44612302995 0.0134060553251 0.0
1.46072378959 -0.031395769143 0.0
0.796101753579 0.00852508869398 0.0
0.786594789906 0.0213100407912 0.0
0.807499806717 0.028964290845 0.0
0.825057863589 0.0426505863228 0.0
0.828759639521 0.00841722685493 0.0
0.819297555609 -0.0231190530858 0.0
0.814824122478 -0.017082879582 0.0
0.802878038726 -0.00062943265167 0.0
0.815022922379 -0.0211978938116 0.0
0.905937409127 0.0264788953261 0.0
0.906577766396 -0.0443424614379 0.0
1.17225981142 0.183086051215 0.0
0.878115346118 -0.00987719413242 0.0
0.891598784215 -0.023107871743 0.0
1.04106862359 -0.0225631863448 0.0
1.33379424823 -0.0407566080452 0.0
1.18396455369 -0.0836771330807 0.0
0.898567154704 -0.00143220847292 0.0
0.82494973213 0.0181915506156 0.0
0.845044545025 0.0328114345631 0.0
0.878238393356 0.0258131655584 0.0
0.802587773132 0.0479518145416 0.0
0.798447257686 -0.00861631080532 0.0
0.832070375697 -0.0131682229372 0.0
0.84637176986 -0.011976822693 0.0
0.833182818895 -0.00255309412132 0.0
0.836635292433 -0.0297700005716 0.0
1.41184646553 -0.021750042654 0.0
1.35973834792 -0.00891190643791 0.0
0.858383892373 0.012916933131 0.0
1.41094387516 0.0319616489599 0.0
1.38961020572 0.0287518245037 0.0
0.887361686448 -0.0261956684414 0.0
0.864302781514 0.103739910517 0.0
1.42805829602 0.0263681780808 0.0
1.4124805236 0.0105161034292 0.0
0.837284076346 -0.0231851321792 0.0
0.884970877392 -0.00422900075535 0.0
1.43329775401 -0.0293015816829 0.0
1.42436276152 -0.0235986489906 0.0
1.4228381867 0.0223579487134 0.0
1.41633731984 -0.0139790091289 0.0
0.832343978349 -0.00281685573771 0.0
1.41808530165 0.0194156793777 0.0
1.34380125102 0.0376014299707 0.0
1.37284874886 -0.0492498388428 0.0
1.28258650797 0.00986333650179 0.0
1.26135722653 -0.0324020082957 0.0
1.25771770861 -0.0102872897112 0.0
1.25996372932 0.0339629163795 0.0
1.28886446338 0.0243111573523 0.0
1.27716731306 0.00163004365358 0.0
1.23639176706 0.0345318115288 0.0
1.25283661616 0.0014881848719 0.0
1.27118629554 -0.00827058844402 0.0
1.23829532859 -0.0147696909671 0.0
1.25672317126 -0.0358167542106 0.0
1.29275450451 -0.0329857171387 0.0
1.24074868975 -0.044218634123 0.0
1.2599279793 0.0108355244325 0.0
1.27131252783 0.0243087682639 0.0
1.29239683755 0.0369665318523 0.0
1.27793514144 0.018699724536 0.0
1.28486499643 0.0152800469776 0.0
1.21512232098 -0.07305250878 0.0
1.32059239286 -0.0300112091737 0.0
1.26794109129 0.00542195519416 0.0
1.27004260249 0.0307013197137 0.0
1.2521536122 -0.0368766666845 0.0
1.24493044507 -0.0108729970735 0.0
1.26421901297 0.0578629161664 0.0
1.36053572913 -0.0246546019182 0.0
1.23151942644 -0.00173539274369 0.0
1.27378250056 -0.011564918847 0.0
1.3500909337 -0.022045125914 0.0
1.35846254975 -0.011553170245 0.0
0.868770286282 -0.138204382952 0.0
1.31004716029 -0.00548071551258 0.0
1.28178212746 -0.00539395071792 0.0
1.47960963308 -0.0230707339225 0.0
1.48113321148 -0.00674335541674 0.0
1.31520111318 0.000374909259543 0.0
1.03122629253 0.0963245006516 0.0
0.737428383883 -0.0105631163668 0.0
1.1274172875 0.163022321572 0.0
1.01243836558 -0.0901956667893 0.0
1.29654545958 -0.000731988396298 0.0
1.36656904866 -0.0360047502111 0.0
1.29705401778 0.00621292686133 0.0
1.46083201448 -0.0143808836834 0.0
1.39018558361 0.0149487717553 0.0
0.851863723628 0.0931947283107 0.0
0.664311579035 0.034636516092 0.0
1.09121022717 -0.116949965524 0.0
0.838851250499 -0.0782004873085 0.0
1.45235590551 0.0194536083535 0.0
1.43125191303 0.0524612783472 0.0
0.663189344292 0.0462855909245 0.0
0.69404858897 0.0141876157434 0.0
0.652081495747 -0.000977995819249 0.0
1.46636279173 0.0264364155782 0.0
1.45768946653 -0.0272991127084 0.0
1.45197544516 -0.0216370505474 0.0
1.42360668441 0.0309051979862 0.0
1.4637015285 -0.0164786211376 0.0
1.46856709758 -0.0333256640264 0.0
1.46005881855 0.0214781027005 0.0
1.46054016735 0.0252203813129 0.0
0.663701086863 -0.0195341813583 0.0
0.656767867299 -0.0310806695356 0.0
1.46761910769 0.0240403602411 0.0
0.686841944477 0.0234681571524 0.0
0.680360614201 -0.0155814315736 0.0
0.726787288897 0.0370014876988 0.0
0.682463883482 0.0181072131134 0.0
0.806611632903 -0.0314805947846 0.0
0.65012962841 -0.0435511699057 0.0
0.675927097716 -0.00863137121036 0.0
0.697158050172 -0.0359939257715 0.0
0.77086368197 0.0159458783978 0.0
0.653940194408 -0.0270508797465 0.0
0.635010986591 0.0294006187184 0.0
0.634030422011 0.0107521005823 0.0
0.484272980721 0.0377146184034 0.0
1.12814816383 -0.0524094639568 0.0
0.781664858605 -0.0137356495875 0.0
0.613595455478 0.00365759912392 0.0

SCALARS scalar1 double
LOOKUP_TABLE default
2.61111154008
5.32289935832
5.43731350516
4.95548653591
-6.07334531519
-2.58030684597
10.2127789719
9.39971703893
7.40090987619
6.73123637859
6.0001767364
5.83869978021
5.72326788686
5.31875437423
5.4400428289
5.36860535833
5.42887290584
5.61566707513
5.70200937402
5.73414052495
5.66196095594
5.55705436283
5.46726295691
5.35189928861
5.27135007202
5.39467653624
5.36200060705
5.61220039029
5.84310375818
5.65553986723
7.01317685365
4.16399899181
7.02596447602
5.52083424301
5.71865012558
5.59054215731
5.42473954734
5.60381621621
5.66835192619
5.68999456555
5.68411868585
5.56015397613
5.47344549928
5.31657401028
5.20614968265
5.56931029242
5.38102281024
5.71229409094
5.73806921828
5.45213326885
5.35226561922
5.15029798695
5.55495038131
4.89206459961
3.70304857873
1.31456772138
-0.990103860508
-3.08828372552
-6.34255713102
-6.27163963408
-5.60397075854
-5.23118994543
-5.43478256443
-5.14021907796
-5.65347647508
-5.64521388659
-5.57287001659
-5.90442227215
-5.72731015908
-5.53881074365
-5.80364519963
-5.5705907617
-5.1950821143
-5.5336674076
-5.6655794779
-5.35949642631
-5.66940745814
-7.22574387317
-4.8337799047
-5.80324245743
-5.65771267932
-5.6313410569
-5.68293093238
-4.69162861509
-6.89875383763
-5.6836434527
-5.44227221021
-5.89971232325
-5.97765876177
-5.52822011555
-5.58170623034
-5.59355946025
-5.30733129077
-5.54978102303
-5.63615100106
-5.44667813422
-5.98382349313
-6.31466029853
-5.99977365461
-6.24664873809
-6.83842374596
-6.30182891328
-6.61278342343
-6.42056906404
-7.265562727
-9.98059396487
-11.2720573127
2.86889207036
-0.0281782075497
-0.0055790608569
-2.81030277717
0.0905901808779
0.531610582641
0.798666426169
0.614078916596
0.831711054898
0.792427440857
1.1181510843
1.06649860231
1.14872334981
1.11587951321
1.10986739074
1.01274682763
1.0508022084
0.234093891835
0.369838560165
0.188935657362
2.5406717847
-0.653994735777
-1.88006720476
-1.47925582719
-1.7704731233
-1.4535742994
-1.5406028678
-1.50598788874
-1.35473554279
-1.42740336264
-1.48358254188
1.95345556726
1.16046192412
-1.048820308
-1.66605780719
2.05899931197
1.85871657357
-0.184984952564
-1.60438702204
2.15177966311
2.40913345408
2.08711503701
2.12209247228
2.29351566909
2.33096153097
2.21288131789
2.20757908471
2.30446015481
0.917974716783
-2.1054173408
-1.95916778317
-2.04853077857
2.18223440542
2.23025133416
1.05663845497
2.81611795316
2.5658321601
2.36905896453
-2.87921975389
-1.87740595417
-2.43493410502
-2.91064738963
2.81524835259
2.85242664307
-2.54043831339
-2.23755985647
-2.36460653572
-2.61259930819
-2.67490593644
-2.53593371116
-2.70693369857
-2.30977647741
3.30228385843
3.93602275323
3.36933969389
3.35847234274
3.98964007307
3.36575589063
3.5302654082
4.34577656389
3.58740219284
-3.48810132295
-2.69646148015
-3.26152155791
-2.73266481435
2.44708489984
0.0578244321254
0.104176802289
-3.58466737359
-3.82221132844
0.161242131484
0.059539247127
4.3447219012
2.61201984978
4.28675845954
-0.266687822237
-3.23690812009
-3.67195130002
-3.89520259389
-3.20602342414
-3.61342894315
-3.90439411921
-3.9038817445
-3.29441700642
-3.20577556166
-3.73891606914
-3.45054123749
3.45203091928
3.89016019821
3.43758822137
3.2608198959
2.91481425755
3.65800376083
3.57240772495
4.04272519716
-0.0205466448402
0.0525878886901
4.19607435125
3.72335153463
0.522574848395
0.626605100037
3.56012679154
3.93711173688
4.23236973963
3.62349765531
4.09920674153
4.14514180977
3.59927608868
0.61644432242
0.722094891092
0.627696946351
0.621522140874
0.296358153865
0.598961221909
0.429159779235
0.503167648083
0.475846037768
0.323672481381
0.214493483683
0.370602705939
0.287873452587
0.579198407516
0.431994766634
0.446780116293
0.576661529709
0.518435652328
0.657219542712
0.49476374895
0.703349364201
0.732341027902
0.770001080536
0.662463448198
3.65399296489
4.23497099561
3.85899385538
3.8780221131
4.04160272511
3.97567630027
3.58082063898
3.58528274734
4.1809605929
-3.62556693403
-3.25682626002
0.221889623084
-3.65588702177
-3.73435597765
-3.51407064686
1.99237953961
-0.216471387343
-3.5957300107
-4.35706566819
-3.72896064959
-3.80246784673
-4.06377643735
-4.55808628778
-3.74203780311
-4.41780251564
-4.3012304343
-3.72593326954
-1.26171962343
-0.250913565443
-3.5533846402
-1.22465613355
-0.873868404433
-3.69752835802
3.78332671704
-0.931461227859
-1.11206781889
4.2985550583
-3.467253596
-0.99563128094
-1.07878194412
-1.13634381009
-1.08249522082
3.73708018444
-1.11965004302
-1.57741323609
-1.57193651948
1.97182794074
1.68277735136
2.13672544955
2.3024793005
2.05231036307
2.48817105487
2.16026045326
2.12725784899
2.37342912342
2.26600644854
2.25769125757
1.87342246486
1.26037914201
2.17785068465
2.00792040567
2.06789999736
1.76930331639
1.99878899587
0.847079952769
1.82339435601
2.57536788234
2.14313578025
2.30368606111
2.28131202511
0.461497318238
-1.67088060376
2.14396495925
2.35887829149
-1.39586212268
-1.40002490308
3.73998532939
2.04104827097
2.09108355613
0.703706961818
0.669692239346
-2.02070559637
1.46890034315
-4.12194633418
-3.80007343722
-1.03199806841
2.32933674456
-1.55177651965
0.179213127747
-0.808525550587
-0.21030865087
-3.89211197989
4.73367501933
3.5830147346
-4.66357375736
-0.786557224319
-0.580279890004
-4.46944019405
-3.98814943858
-4.54315691792
-0.503388728292
-0.69077870166
-1.09769379425
-1.18806586086
-0.609665984637
-0.615686910337
-0.705839886731
-0.773581810379
-4.24683099071
-4.51657975278
-0.760678434267
-4.6095111349
-4.00061737567
-4.19782477225
-4.2819285945
3.92855106955
4.46226991331
4.04696731714
4.29904676855
-4.28259098542
-4.76379308644
4.30052271131
4.52795622741
4.49244257331
1.0152830283
-4.98829540189
-4.19254796876

SCALARS scalar2 double
LOOKUP_TABLE default
2.61111154008
5.32289935832
5.43731350516
4.95548653591
-6.07334531519
-2.58030684597
10.2127789719
9.39971703893
7.40090987619
6.73123637859
6.0001767364
5.83869978021
5.72326788686
5.31875437423
5.4400428289
5.36860535833
5.42887290584
5.61566707513
5.70200937402
5.73414052495
5.66196095594
5.55705436283
5.46726295691
5.35189928861
5.27135007202
5.39467653624
5.36200060705
5.61220039029
5.84310375818
5.65553986723
7.01317685365
4.16399899181
7.02596447602
5.52083424301
5.71865012558
5.59054215731
5.42473954734
5.60381621621
5.66835192619
5.68999456555
5.68411868585
5.56015397613
5.47344549928
5.31657401028
5.20614968265
5.56931029242
5.38102281024
5.71229409094
5.73806921828
5.45213326885
5.35226561922
5.15029798695
5.55495038131
4.89206459961
3.70304857873
1.31456772138
-0.990103860508
-3.08828372552
-6.34255713102
-6.27163963408
-5.60397075854
-5.23118994543
-5.43478256443
-5.14021907796
-5.65347647508
-5.64521388659
-5.57287001659
-5.90442227215
-5.72731015908
-5.53881074365
-5.80364519963
-5.5705907617
-5.1950821143
-5.5336674076
-5.6655794779
-5.35949642631
-5.66940745814
-7.22574387317
-4.8337799047
-5.80324245743
-5.65771267932
-5.6313410569
-5.68293093238
-4.69162861509
-6.89875383763
-5.6836434527
-5.44227221021
-5.89971232325
-5.97765876177
-5.52822011555
-5.58170623034
-5.59355946025
-5.30733129077
-5.54978102303
-5.63615100106
-5.44667813422
-5.98382349313
-6.31466029853
-5.99977365461
-6.24664873809
-6.83842374596
-6.30182891328
-6.61278342343
-6.42056906404
-7.265562727
-9.98059396487
-11.2720573127
2.86889207036
-0.0281782075497
-0.0055790608569
-2.81030277717
0.0905901808779
0.531610582641
0.798666426169
0.614078916596
0.831711054898
0.792427440857
1.1181510843
1.06649860231
1.14872334981
1.11587951321
1.10986739074
1.01274682763
1.0508022084
0.234093891835
0.369838560165
0.188935657362
2.5406717847
-0.653994735777
-1.88006720476
-1.47925582719
-1.7704731233
-1.4535742994
-1.5406028678
-1.50598788874
-1.35473554279
-1.42740336264
-1.48358254188
1.95345556726
1.16046192412
-1.048820308
-1.66605780719
2.05899931197
1.85871657357
-0.184984952564
-1.60438702204
2.15177966311
2.40913345408
2.08711503701
2.12209247228
2.29351566909
2.33096153097
2.21288131789
2.20757908471
2.30446015481
0.917974716783
-2.1054173408
-1.95916778317
-2.04853077857
2.18223440542
2.23025133416
1.05663845497
2.81611795316
2.5658321601
2.36905896453
-2.87921975389
-1.87740595417
-2.43493410502
-2.91064738963
2.81524835259
2.85242664307
-2.54043831339
-2.23755985647
-2.36460653572
-2.61259930819
-2.67490593644
-2.53593371116
-2.70693369857
-2.30977647741
3.30228385843
3.93602275323
3.36933969389
3.35847234274
3.98964007307
3.36575589063
3.5302654082
4.34577656389
3.58740219284
-3.48810132295
-2.69646148015
-3.26152155791
-2.73266481435
2.44708489984
0.0578244321254
0.104176802289
-3.58466737359
-3.82221132844
0.161242131484
0.059539247127
4.3447219012
2.61201984978
4.28675845954
-0.266687822237
-3.23690812009
-3.67195130002
-3.89520259389
-3.20602342414
-3.61342894315
-3.90439411921
-3.9038817445
-3.29441700642
-3.20577556166
-3.73891606914
-3.45054123749
3.45203091928
3.89016019821
3.43758822137
3.2608198959
2.91481425755
3.65800376083
3.57240772495
4.04272519716
-0.0205466448402
0.0525878886901