# vtk DataFile Version 2.0
2D Simulation Python
ASCII
DATASET UNSTRUCTURED_GRID
FIELD FieldData 1
NODES 1 2 int
386 659

POINTS 386 double
0.0 1.0 0.0
1.725 0.9700586403872806 0.0
8.275 1.0299413596127194 0.0
10.0 1.0 0.0
10.0 -4.822107120490874e-17 0.0
0.0 0.0 0.0
0.1916666666663293 1.0223025246957989 0.0
0.3833333333324708 1.0367601893484129 0.0
0.574999999998553 1.0382875447857314 0.0
0.7666666666645966 1.0263473473635922 0.0
0.9583333333312576 1.0051395331403656 0.0
1.149999999998384 0.9821239003528889 0.0
1.341666666665662 0.9653961431204513 0.0
1.533333333332819 0.9608402102836568 0.0
1.92348484848444 0.990625830294731 0.0
2.121969696968978 1.0147213513773503 0.0
2.320454545453434 1.0332759227397972 0.0
2.518939393937826 1.0393058141277587 0.0
2.717424242422235 1.0305414428010258 0.0
2.915909090906411 1.0102816187401356 0.0
3.1143939393908 0.9861519099777059 0.0
3.312878787875129 0.9672344652640712 0.0
3.511363636359531 0.9606495962679866 0.0
3.709848484843827 0.9688757730079909 0.0
3.90833333332816 0.9888167558429567 0.0
4.106818181812215 1.0129669849620164 0.0
4.305303030296804 1.032236587985406 0.0
4.503787878781365 1.039372704849924 0.0
4.702272727265711 1.031689382090447 0.0
4.900757575750005 1.012078535265749 0.0
5.099242424235156 0.9879214647359982 0.0
5.297727272720327 0.9683106179105773 0.0
5.496212121205663 0.9606272951500959 0.0
5.694696969690998 0.9677634120137277 0.0
5.89318181817668 0.9870330150366876 0.0
6.09166666666213 1.0111832441558912 0.0
6.290151515147423 1.0311242269913465 0.0
6.488636363633031 1.0393504037319814 0.0
6.687121212118713 1.0327655347363511 0.0
6.885606060604342 1.0138480900228566 0.0
7.084090909089381 0.9897183812603674 0.0
7.282575757574369 0.9694585571992397 0.0
7.481060606059355 0.960694185872261 0.0
7.679545454544343 0.966724077260056 0.0
7.878030303029329 0.9852786486224548 0.0
8.076515151514705 1.0093741697051664 0.0
8.46666666666447 1.0391597897163083 0.0
8.658333333329285 1.0346038568798468 0.0
8.84999999999549 1.0178760996477874 0.0
9.041666666661694 0.9948604668604988 0.0
9.233333333327899 0.9736526526370978 0.0
9.42499999999549 0.9617124552144387 0.0
9.616666666663775 0.9632398106514212 0.0
9.808333333331985 0.9776974753040288 0.0
10.0 0.7999999999999998 0.0
10.0 0.6000000000013869 0.0
10.0 0.4000000000016644 0.0
10.0 0.2000000000008322 0.0
9.799999999999999 -0.023144333961208022 0.0
9.6 -0.03744831899621283 0.0
9.399999999999999 -0.03744831899621274 0.0
9.2 -0.023144333961207717 0.0
8.999999999999998 3.2317866774325044e-16 0.0
8.799999999999997 0.02314433396120822 0.0
8.599999999999998 0.03744831899621291 0.0
8.399999999999997 0.037448318996212676 0.0
8.199999999999998 0.02314433396120762 0.0
7.999999999999997 -3.1835656062275943e-16 0.0
7.799999999999997 -0.02314433396120822 0.0
7.599999999999998 -0.03744831899621291 0.0
7.399999999999997 -0.037448318996212676 0.0
7.199999999999998 -0.023144333961207735 0.0
6.999999999999997 3.1353445350226866e-16 0.0
6.799999999999997 0.023144333961208234 0.0
6.599999999999998 0.03744831899621291 0.0
6.399999999999997 0.03744831899621265 0.0
6.199999999999998 0.02314433396120772 0.0
5.999999999999997 -3.087123463817778e-16 0.0
5.799999999999998 -0.023144333961208123 0.0
5.599999999999998 -0.03744831899621291 0.0
5.399999999999999 -0.03744831899621279 0.0
5.199999999999998 -0.02314433396120772 0.0
4.999999999999999 1.6400038743187075e-16 0.0
4.799999999999999 0.02314433396120797 0.0
4.599999999999999 0.0374483189962129 0.0
4.399999999999999 0.03744831899621274 0.0
4.199999999999999 0.023144333961207793 0.0
3.999999999999999 -1.5917828031137971e-16 0.0
3.799999999999999 -0.023144333961207974 0.0
3.599999999999999 -0.03744831899621286 0.0
3.399999999999998 -0.03744831899621274 0.0
3.199999999999998 -0.02314433396120762 0.0
2.999999999999999 1.543561731908889e-16 0.0
2.799999999999998 0.02314433396120804 0.0
2.599999999999998 0.03744831899621292 0.0
2.399999999999999 0.03744831899621277 0.0
2.199999999999999 0.023144333961207735 0.0
1.999999999999998 -2.544514549424601e-16 0.0
1.799999999999999 -0.023144333961207998 0.0
1.6 -0.0374483189962128 0.0
1.4 -0.0374483189962128 0.0
1.199999999999999 -0.023144333961207755 0.0
0.9999999999999982 2.321431163432923e-16 0.0
0.7999999999999989 0.023144333961207998 0.0
0.6000000000000014 0.03744831899621276 0.0
0.3999999999999986 0.03744831899621276 0.0
0.1999999999999993 0.023144333961207783 0.0
0.0 0.1999999999995579 0.0
0.0 0.3999999999989749 0.0
0.0 0.5999999999989468 0.0
0.0 0.7999999999994734 0.0
0.6588466718382655 0.5547094950459956 0.0
9.341152799761414 0.5372288478385654 0.0
8.741432844464743 0.5744936045476899 0.0
1.2585641973953707 0.5604299941698621 0.0
8.16284145073513 0.5775774064270011 0.0
1.8371433490977571 0.5680295443344691 0.0
2.4304413601655055 0.6097219356208614 0.0
7.569477443900164 0.5858878413446049 0.0
3.030492245910886 0.6013760141393952 0.0
6.96902618521883 0.6010709367154858 0.0
3.6286638984337074 0.5898534881734421 0.0
6.367982670106653 0.6017240612979248 0.0
4.22940077144053 0.5988643806026301 0.0
5.795134235744272 0.5202006999868449 0.0
4.8024785187230075 0.5340420183237854 0.0
5.298820266721935 0.5088402408056348 0.0
9.677454509596036 0.6874260957113522 0.0
0.32254534901804954 0.713587782963421 0.0
4.530525394582995 0.3524521342689146 0.0
3.9188227623147496 0.3696463286018222 0.0
6.067964737341471 0.3389597043662719 0.0
3.319411585328573 0.3654697532921236 0.0
6.679655353975927 0.38300698427290764 0.0
7.878986044989079 0.36190907275579354 0.0
2.1209823983381084 0.37295402617472634 0.0
2.72011029437187 0.3852631139041318 0.0
7.279714263667361 0.36518253757433317 0.0
9.037270242131788 0.670929864875178 0.0
0.9627286490387845 0.6741505064035739 0.0
1.532083847283133 0.34782447990962795 0.0
8.467910221059626 0.37286645524954387 0.0
8.45829414333084 0.6934787648289107 0.0
1.5417001676648445 0.6665244588164547 0.0
0.97939986709601 0.36582012710866596 0.0
9.020598892485115 0.364827402891895 0.0
4.527199774942483 0.7057368143736267 0.0
3.9214025968043034 0.6976473304838682 0.0
6.069685660501856 0.6936751160647738 0.0
2.118376999596884 0.6977848687889147 0.0
7.881594500284721 0.6860398436240783 0.0
3.3233611527150657 0.692131125121368 0.0
6.67555661821292 0.7142047161352176 0.0
2.7253711637794895 0.7159131623464675 0.0
7.274462756001898 0.691608002741364 0.0
0.3328395779811049 0.31624376694643197 0.0
9.667160267696143 0.29102132012214316 0.0
5.581324220038459 0.30460595762802717 0.0
5.0172206073061725 0.320063832885338 0.0
5.509457727632431 0.6766917027423284 0.0
5.0873921219499545 0.6883721565985276 0.0
0.661900509133859 0.7499029671474832 0.0
9.338099094941327 0.7212044780193801 0.0
8.747624311373887 0.7516084273687036 0.0
1.252373518767222 0.7284874870265329 0.0
8.670387985700856 0.2897795700112361 0.0
1.3296091192977897 0.26242236308002137 0.0
0.6804015935188694 0.25161324666977314 0.0
9.319598013778544 0.22223620188363233 0.0
8.169907997392908 0.753204029352173 0.0
1.830081043435509 0.736575618380995 0.0
8.082241617680184 0.28203674715859295 0.0
1.917743131231355 0.27423945211704087 0.0
7.4851805925153165 0.2691896238763164 0.0
2.5147355673681133 0.3019510447141371 0.0
6.885160963802332 0.29153977450813234 0.0
3.1144048677824046 0.2821604720988874 0.0
6.2849352315149405 0.2829554332082246 0.0
3.713789043650888 0.27375165096152426 0.0
2.42244930874838 0.8335987240506938 0.0
7.577503964255906 0.7905237199862448 0.0
3.0216051106657322 0.8137916863454249 0.0
6.978106160663513 0.814962855615821 0.0
3.618459649056913 0.793514812023466 0.0
6.37947496910569 0.8303667822354308 0.0
4.216884896902045 0.8234000905946139 0.0
5.793598400183205 0.8279540269907248 0.0
4.802574982222629 0.8572182390911917 0.0
5.299579324195539 0.16582746392424275 0.0
4.313878968020051 0.28529880472108526 0.0
4.7432049337893645 0.25142444801039693 0.0
5.855724986107015 0.22665208392049693 0.0
5.298372066418846 0.7013878872205298 0.0
0.194837267669967 0.5082757175464716 0.0
9.805162635718995 0.4959914332885411 0.0
9.486963243274902 0.13947890519412307 0.0
0.5130365844612436 0.18520589071797153 0.0
9.568925521357171 0.5022729228403086 0.0
0.43107421481256264 0.5221467704249715 0.0
9.509138636051626 0.813106454564095 0.0
0.4908612051638432 0.8595968494413446 0.0
9.82368471672626 0.8154982730631889 0.0
0.17631523672681354 0.8399808897271138 0.0
7.690675621937903 0.17441785926659292 0.0
2.3092909756985276 0.2110119259319786 0.0
8.876663735530508 0.19987349208742977 0.0
1.1233350730058123 0.1837495165412174 0.0
7.090880439033503 0.18890149419028543 0.0
2.908943047753395 0.201486698642988 0.0
6.491076251707037 0.21135522975085477 0.0
3.5085323264600117 0.17365971470135882 0.0
1.7133214025798325 0.1712052580256201 0.0
8.286672452743554 0.2050705577967069 0.0
4.108122728890799 0.19766606208451945 0.0
8.577560102138083 0.8501871109611088 0.0
1.4224373952723566 0.8069820890992448 0.0
8.923332976926009 0.8313950443802279 0.0
1.076666070293489 0.8212047684079504 0.0
0.8418681020356372 0.8353877512054835 0.0
9.158131416933475 0.8144315138759174 0.0
8.345850372044605 0.849525551666287 0.0
1.6541447896785095 0.8099069908043565 0.0
5.5924490904194775 0.4918988996291496 0.0
5.005265140448966 0.5033144095421339 0.0
7.78940510839693 0.8244774849591238 0.0
2.2105728174719492 0.8543138092836855 0.0
7.77686507754412 0.5446024508365709 0.0
2.223088672739857 0.5593591752354595 0.0
2.815276574132921 0.8582100443392686 0.0
7.184590602475458 0.8308114005783669 0.0
3.4120552050973125 0.8218707344381864 0.0
6.5870348174355975 0.8654824476088141 0.0
4.009202334882069 0.8428885779625588 0.0
5.984832284005393 0.8422528533400604 0.0
4.61134471757605 0.8663616288078629 0.0
7.175166163763946 0.553803785110753 0.0
2.8245670233007907 0.5663972591356481 0.0
6.5752040162289545 0.5651987839051448 0.0
3.423088906505049 0.550380305468797 0.0
5.978030920243979 0.5297746117393973 0.0
4.022408006131889 0.5558691357907855 0.0
4.619575537628896 0.5417336946355106 0.0
8.54899731478612 0.5501030291852533 0.0
[...]
POINT_DATA 386
VECTORS vector double
1.0 0.0 0.0
0.0 0.0 0.0
0.0 0.0 0.0
0.0 0.0 0.0
0.0 0.0 0.0
1.0 0.0 0.0
0.0 0.0 0.0
0.0 0.0 0.0
0.0 0.0 0.0
0.0 0.0 0.0
0.0 0.0 0.0
0.0 0.0 0.0
0.0 0.0 0.0
0.0 0.0 0.0
0.0 0.0 0.0
0.0 0.0 0.0
0.0 0.0 0.0
0.0 0.0 0.0
0.0 0.0 0.0
0.0 0.0 0.0
0.0 0.0 0.0
0.0 0.0 0.0
0.0 0.0 0.0
0.0 0.0 0.0
0.0 0.0 0.0
0.0 0.0 0.0
0.0 0.0 0.0
0.0 0.0 0.0
0.0 0.0 0.0
0.0 0.0 0.0
0.0 0.0 0.0
0.0 0.0 0.0
0.0 0.0 0.0
0.0 0.0 0.0
0.0 0.0 0.0
0.0 0.0 0.0
0.0 0.0 0.0
0.0 0.0 0.0
0.0 0.0 0.0
0.0 0.0 0.0
0.0 0.0 0.0
0.0 0.0 0.0
0.0 0.0 0.0
0.0 0.0 0.0
0.0 0.0 0.0
0.0 0.0 0.0
0.0 0.0 0.0
0.0 0.0 0.0
0.0 0.0 0.0
0.0 0.0 0.0
0.0 0.0 0.0
0.0 0.0 0.0
0.0 0.0 0.0
0.0 0.0 0.0
0.893390251679 0.0979219204327 0.0
1.40078178608 0.000238210912573 0.0
1.42502556449 -0.00649273521212 0.0
1.02362808537 -0.081779834351 0.0
0.0 0.0 0.0
0.0 0.0 0.0
0.0 0.0 0.0
0.0 0.0 0.0
0.0 0.0 0.0
0.0 0.0 0.0
0.0 0.0 0.0
0.0 0.0 0.0
0.0 0.0 0.0
0.0 0.0 0.0
0.0 0.0 0.0
0.0 0.0 0.0
0.0 0.0 0.0
0.0 0.0 0.0
0.0 0.0 0.0
0.0 0.0 0.0
0.0 0.0 0.0
0.0 0.0 0.0
0.0 0.0 0.0
0.0 0.0 0.0
0.0 0.0 0.0
0.0 0.0 0.0
0.0 0.0 0.0
0.0 0.0 0.0
0.0 0.0 0.0
0.0 0.0 0.0
0.0 0.0 0.0
0.0 0.0 0.0
0.0 0.0 0.0
0.0 0.0 0.0
0.0 0.0 0.0
0.0 0.0 0.0
0.0 0.0 0.0
0.0 0.0 0.0
0.0 0.0 0.0
0.0 0.0 0.0
0.0 0.0 0.0
0.0 0.0 0.0
0.0 0.0 0.0
0.0 0.0 0.0
0.0 0.0 0.0
0.0 0.0 0.0
0.0 0.0 0.0
0.0 0.0 0.0
0.0 0.0 0.0
0.0 0.0 0.0
0.0 0.0 0.0
0.0 0.0 0.0
0.0 0.0 0.0
1.0 0.0 0.0
1.0 0.0 0.0
1.0 0.0 0.0
1.0 0.0 0.0
1.23885472489 -0.0558752648787 0.0
1.46696637307 -0.0384514066933 0.0
1.43710642433 -0.0178693835652 0.0
1.35944279791 -0.0325553703294 0.0
1.43598335925 0.0329952741044 0.0
1.41314165432 0.0315065936525 0.0
1.38184914569 0.0165936258138 0.0
1.43226826097 0.00170226155534 0.0
1.40768797028 -0.0328449894819 0.0
1.41055297571 -0.0278728444134 0.0
1.42944056178 0.00156867816903 0.0
1.39948805816 0.0192472730054 0.0
1.4054762192 0.0242760235743 0.0
1.4602406821 0.0242983740827 0.0
1.4587038688 -0.0254831533343 0.0
1.50685319122 -0.0216772643395 0.0
1.28814281899 0.00383482077241 0.0
1.10007443592 -0.0911527258479 0.0
1.35774955756 0.00988764597082 0.0
1.36400751974 0.0310401519788 0.0
1.31708294287 0.0284121210794 0.0
1.36122779016 -0.0228296608072 0.0
1.38795874187 -0.0107108789406 0.0
1.3586758749 0.0304706055638 0.0
1.37675936573 0.05072827264 0.0
1.39709969713 -0.0152599424041 0.0
1.355391852 -0.030461619411 0.0
1.3214130291 -0.0495729342944 0.0
1.24534945231 -0.0688662765951 0.0
1.34182680345 0.0286144019882 0.0
1.38468774251 0.0109240525759 0.0
1.28287452039 0.0106901644446 0.0
1.29399852693 0.0048163075146 0.0
1.34187734313 -0.0212481693748 0.0
1.37446408676 -0.0497378161624 0.0
1.22733463423 -0.00291377338672 0.0
1.24777304879 0.032796766718 0.0
1.26001900111 0.0417004775046 0.0
1.23920780518 0.0479157449494 0.0
1.28587808103 0.027577906809 0.0
1.2739256843 -0.024583544203 0.0
1.20852688098 -0.0130581957711 0.0
1.19973428463 -0.0157274808062 0.0
1.27363770089 -0.0319490175369 0.0
1.17820882819 0.107067608969 0.0
1.26927340681 -0.0158122407731 0.0
1.2466967209 0.00743297310656 0.0
1.28226308483 -0.0414507076676 0.0
1.29035460216 0.0284189824605 0.0
1.24700810581 -0.0617535613749 0.0
1.13354528881 -0.0878908067072 0.0
1.22978800442 -0.0385891487915 0.0
1.14274973638 -0.0235013918157 0.0
1.17388373115 -0.0484682972328 0.0
1.23227725717 -0.0140246604815 0.0
1.18960262946 -0.00747155987824 0.0
1.24602366458 -0.000578155328956 0.0
1.07926058297 -0.0393976679725 0.0
1.13916787625 0.0358879207117 0.0
1.16740433654 0.0348129325648 0.0
1.20088018172 0.0504142562758 0.0
1.21118566399 0.0371858770223 0.0
1.1641368983 0.00283414084362 0.0
1.26628444199 0.00562487975519 0.0
1.2280454985 -0.0283873263885 0.0
1.19284489195 -0.0463258388846 0.0
1.21441243544 0.036261878913 0.0
1.18076410424 0.00252123727562 0.0
0.828676236701 0.0125881265396 0.0
1.03943189413 0.0119658878325 0.0
0.935710629505 -0.0513691358221 0.0
0.929263750753 -0.0498138490012 0.0
1.02679981173 0.0160183986626 0.0
0.842103026432 0.0203023897821 0.0
0.863216024176 0.0346638680234 0.0
0.886568188675 0.0439755881666 0.0
0.757796634196 -0.0341460397887 0.0
0.853529904987 -0.0255844863746 0.0
1.23496680531 0.0274843222232 0.0
1.05964555459 -0.0441486756015 0.0
0.956556280246 0.041352559797 0.0
1.18607029032 -0.0277330165427 0.0
1.01756155871 0.0118412516862 0.0
1.47509556075 -0.00997010694157 0.0
0.760068032854 -0.0104978406605 0.0
1.18569086654 0.0548698544139 0.0
1.48348517058 -0.0228266471179 0.0
1.13637712875 -0.019160152625 0.0
0.90489788198 -0.0133897985292 0.0
0.936604263906 -0.077703268029 0.0
0.812845056038 -0.0470534606511 0.0
1.07830378344 -0.0944346211576 0.0
0.870285764556 0.0122489079444 0.0
1.05071353485 0.0529905022824 0.0
0.958867139932 -0.0568206621206 0.0
1.00391340502 -0.0234005696725 0.0
0.91121727618 -0.0544842364754 0.0
0.976121082278 -0.0360196628852 0.0
1.04096393416 -0.00153969127299 0.0
0.858086018887 0.00251174478214 0.0
0.906627337095 0.0435950580905 0.0
1.01324883829 0.0296455491619 0.0
0.978983709961 0.0613284781235 0.0
0.756520822744 -0.0098015397334 0.0
0.959644636133 -0.0107623364451 0.0
0.845879226052 -0.0373854121892 0.0
0.913828379397 -0.0821480127545 0.0
0.889922428452 -0.0682454921589 0.0
0.913428489692 -0.0655302788985 0.0
0.753475339592 0.0311918957821 0.0
0.939607863153 0.00850616837559 0.0
1.46603397612 -0.00672729580786 0.0
1.47025972032 -0.021941219069 0.0
0.879189520534 0.0308178485638 0.0
0.72967841109 0.0361645124645 0.0
1.48882972639 0.0220929132207 0.0
1.45674212363 0.0315944565481 0.0
0.749217862017 -0.0352681665768 0.0
0.876021748632 -0.0433489505758 0.0
0.922308963122 -0.0203292630004 0.0
0.706680553047 -0.00101434990763 0.0
0.787648044585 0.0397073702236 0.0
0.819228316235 0.0490796996907 0.0
0.720428540576 -0.0161573972312 0.0
1.4847457875 -0.0296991486049 0.0
1.46691166344 -0.0332538289944 0.0
1.46858448139 0.01329048173 0.0
1.49012084761 -0.019709956356 0.0
1.47338519271 0.034591165816 0.0
1.47843563677 0.0230110240534 0.0
1.47473391209 -0.0113954395869 0.0
1.47402950479 -0.00326195644612 0.0
1.41745435385 0.00205538743372 0.0
1.35220249359 -0.0441610956991 0.0
1.31786273995 -0.0494070104705 0.0
1.48611271165 -0.0372484311623 0.0
1.48420776216 -0.0528480613464 0.0
1.46048842594 0.0173106801744 0.0
1.4473648663 0.0231738287653 0.0
1.48917413272 0.0225839972725 0.0
1.44904499745 0.0486384955099 0.0
1.47279213126 0.0269392540902 0.0
1.46485298992 0.0295649271398 0.0
1.45557765925 0.0298344557107 0.0
1.46493065959 -0.0203959263434 0.0
1.45313651743 -0.0314743151063 0.0
1.44228315227 0.0122750685577 0.0
1.46963730122 -0.0279233416899 0.0
0.702282255356 0.00917405750082 0.0
0.858815755599 0.0414977849682 0.0
0.744807514183 0.0365483484359 0.0
0.824270209281 0.0643716208687 0.0
0.834448443224 0.0295251497268 0.0
0.880957439978 -0.0407536855415 0.0
0.74431485619 -0.0312751612482 0.0
0.704262357147 -0.00617408668061 0.0
0.922013960548 -0.0257808053908 0.0
0.936919272523 -0.00317938308532 0.0
0.8242548456 -0.0335035732678 0.0
1.19099011034 0.252899759506 0.0
0.839450342613 0.0112563691791 0.0
0.864664515715 -0.0381837463846 0.0
1.07891451887 -0.0530370353951 0.0
1.35555284719 -0.0364699233768 0.0
1.18096772904 -0.102015001332 0.0
0.795668148538 0.00590278472726 0.0
0.934240094716 0.0133511938935 0.0
0.812433605268 0.0507394886542 0.0
0.89975601836 0.0492195201782 0.0
0.840612409519 0.0751787346076 0.0
0.905691007111 -0.00752776568903 0.0
0.75572444749 -0.0176788119782 0.0
0.940061828674 -0.0351896264997 0.0
0.920964491648 -0.0203597723632 0.0
0.761444413287 -0.0332882866811 0.0
1.41459782203 -0.0258691819849 0.0
1.35487263801 -0.00920740071686 0.0
0.816526375368 0.0334722578749 0.0
1.42332391385 0.0347401648143 0.0
1.39010869048 0.0326363695187 0.0
0.856761862707 -0.0488797171652 0.0
0.913752346898 0.0647012512628 0.0
1.44336505893 0.0251182360527 0.0
1.40322750644 0.0128191533653 0.0
0.932128895806 0.0103378486535 0.0
0.79303253159 -0.00102840671109 0.0
1.42975914686 -0.0322632851853 0.0
1.42230783832 -0.0265862324871 0.0
1.43699256477 0.0239615375177 0.0
1.40862346915 -0.0105754815565 0.0
0.82175994417 -0.032249268383 0.0
1.43149831189 0.022741564819 0.0
1.3399672574 0.0473008143497 0.0
1.37864360538 -0.0569053363854 0.0
1.26732824358 0.00565542342275 0.0
1.28262550612 -0.030515681944 0.0
1.24564581987 -0.0176054383851 0.0
1.25604018747 0.0426702831948 0.0
1.2872650427 0.0327298369135 0.0
1.28987522742 0.0111366030265 0.0
1.2234894875 0.039245488997 0.0
1.23321717554 0.000698874882924 0.0
1.29489303503 -0.00516646670641 0.0
1.23409466381 -0.0264079516388 0.0
1.27723056475 -0.0452522372605 0.0
1.28936501699 -0.0373685414906 0.0
1.25246059315 -0.0467682077944 0.0
1.24028950607 0.0140350577123 0.0
1.27108939541 0.026621554913 0.0
1.28766507278 0.0381093858695 0.0
1.29322902231 0.0246674480796 0.0
1.26909548654 0.017532825739 0.0
1.2162891151 -0.0807607814045 0.0
1.33583967201 -0.0312171093724 0.0
1.27748097382 0.0156676111401 0.0
1.25879894275 0.0383026799391 0.0
1.27625471841 -0.0449110134969 0.0
1.23796236215 -0.0216028762949 0.0
1.26776241145 0.0374593000188 0.0
1.34548201575 -0.0242500472505 0.0
1.21374082997 -0.00584612781182 0.0
1.29628506189 -0.0104937457321 0.0
1.34157767052 -0.0235758494969 0.0
1.35335967693 -0.0195887300297 0.0
0.963434135189 -0.140167054352 0.0
1.3266898773 0.00830273606264 0.0
1.28367585854 -0.0191815324655 0.0
1.48529369019 -0.0370031257122 0.0
1.48958907274 -0.00624859713535 0.0
1.30817093715 0.00019211277736 0.0
1.04524056588 0.107730908514 0.0
0.649885930844 -0.0036699530372 0.0
1.20725146326 0.173083477479 0.0
1.03482447549 -0.0644906885843 0.0
1.30287238104 -0.00148269095692 0.0
1.3571153292 -0.0346588952165 0.0
1.29714937937 -0.00319723350785 0.0
1.46478092562 -0.0176840881809 0.0
1.38845941887 0.0199140952814 0.0
0.822776927354 0.125664336827 0.0
0.75812211725 0.0541405901153 0.0
1.01087958166 -0.094135695756 0.0
0.939503154754 -0.100588923175 0.0
1.4575116113 0.0225504682706 0.0
1.43251650596 0.0560625004961 0.0
0.752606381571 0.0563530932463 0.0
0.596556839323 0.0217366283462 0.0
0.756274175725 0.013867537657 0.0
1.47574777914 0.0221351436378 0.0
1.45121835688 -0.0255490890525 0.0
1.45574805161 -0.0257467821368 0.0
1.4244913423 0.0378949592862 0.0
1.46335874331 -0.017080175764 0.0
1.4685812781 -0.0362314311776 0.0
1.45414755006 0.0252316030336 0.0
1.47014372449 0.0297660670442 0.0
0.635593573296 -0.0253496282785 0.0
0.69792468196 -0.0495697781662 0.0
1.47578386337 0.0247068569661 0.0
0.812299608031 0.0158969050188 0.0
0.571133168767 -0.0128218655189 0.0
0.675876079852 0.0507979265189 0.0
0.712490174202 0.0382296792065 0.0
0.701636364824 -0.0449716191378 0.0
0.749004119597 -0.0505267214993 0.0
0.592494274421 -0.0182269046565 0.0
0.771151253795 -0.0524010657646 0.0
0.680972407454 0.0160129589129 0.0
0.758947082941 -0.0454847436094 0.0
0.579217629117 0.0360841949695 0.0
0.700842827031 0.0310915474162 0.0
0.507315076668 0.0582842635947 0.0
1.07586822502 0.0433696558869 0.0
0.906727198793 -0.0391962640479 0.0
0.528155954226 0.0048045248721 0.0

SCALARS scalar1 double
LOOKUP_TABLE default
3.97576166824
7.06851676223
4.11725363839
4.64150869414
-5.99642449803
-2.33144650916
8.48251801265
7.49851461434
5.52362742743
5.31233947097
5.78765994857
6.84825754176
7.78315889131
7.29075490519
6.0733671743
4.74125495527
4.16101842833
4.09812163995
4.29441025886
5.2830559711
6.27083335612
7.44153801944
7.53998477152
6.94259871589
5.86991015044
4.83309250016
4.13932609088
3.99184068503
4.52261446862
5.04317474561
7.38143037149
5.4517332615
9.19723457879
7.08441711144
6.41375736448
5.02881063423
4.21906157417
4.0832779723
4.1745630209
5.06520831181
6.07250866162
7.2555195822
7.5151306833
6.99114620976
5.96610415295
5.00476561541
3.8986847563
4.12291368588
4.78380372392
5.64257371744
6.88740305476
7.38319462588
7.76749126156
6.22972830469
3.62271739379
1.35635663381
-0.96094743323
-3.18440965128
-5.05260026035
-4.58891795041
-3.93078429202
-4.13811674351
-5.48756006444
-6.38218117369
-8.01202715424
-7.4201468164
-6.7232907551
-5.94403107043
-4.88641095635
-4.03696064162
-4.13662025291
-4.74375628087
-5.25497814292
-6.78936335562
-7.40140736526
-7.4715805089
-7.3109339126
-7.53397141628
-4.03478290067
-4.41613457236
-4.38851157864
-4.81510122059
-5.62957979455
-5.68212426414
-9.33736622728
-7.87749838374
-6.60826699913
-5.82500828519
-4.7466210831
-4.02392991354
-4.30588821152
-4.62669734661
-5.31982080474
-6.6108933229
-7.94803518687
-7.46121004333
-6.96089527059
-6.1319371575
-4.90583004112
-4.77995826777
-4.95916481868
-5.18284526905
-6.64280639106
-8.05175181298
-10.087373523
-12.5115689673
-13.0858997831
3.47431776569
0.0866295210524
-0.0313173395012
-1.75687738877
0.0505019448026
0.525964925938
0.791095484734
0.623046892388
0.853241770361
0.814020733349
1.16798506242
1.01273867257
1.12105435067
1.0948196092
1.06452319184
1.05603318707
1.11264136866
0.270841860921
0.366793171218
0.169090409022
2.28789312653
-0.615892367876
-1.70703221209
-1.45431686786
-1.75562805448
-1.56875804286
-1.4034438178
-1.5652618007
-1.25931169702
-1.35496199732
-1.56834348574
1.89691030053
1.14155934536
-1.17413190871
-1.5129327607
2.17842070149
1.66933967314
-0.207364310556
-1.61579129477
2.30666821862
2.34319586333
2.19806773329
2.20710769954
2.21479707003
2.13479841693
2.34099975876
2.32840581407
2.13312186188
1.1241778765
-2.28464978796
-2.1595427229
-2.05652534573
1.8928021176
2.09847090108
1.54643745284
2.50552386552
2.78533175293
2.09374805248
-2.51943938654
-2.17329004742
-1.55983607775
-3.19688509263
2.96746927295
2.58493578515
-2.46466226678
-2.37175575704
-2.62286039905
-2.23005974897
-2.51885263728
-2.58403116988
-2.42349690082
-2.54955442736
3.65544432898
3.46748839135
3.48663963534
3.50676832182
3.50084029781
3.7271694953
3.6885837327
3.85447167661
3.8910387242
-3.71242726373
-2.42183063508
-2.94746460168
-2.9707339472
2.24567061802
0.00569128632915
0.107801194737
-3.91807344561
-3.03489013417
0.161958041715
-0.0304673926057
3.91931155941
3.26598000261
3.94061326078
0.0115578929553
-3.56165213801
-3.4133771389
-3.61205279934
-3.23722570315
-3.6207303115
-3.58603078084
-3.49013841999
-3.69788520071
-3.67976037536
-3.50807682177
-3.45824109604
3.81573689951
3.55184184924
3.60086407632
3.32001063305
3.26115813673
3.60745157558
3.85331965242
3.57087906343
0.00277095680191
0.0574222302889
3.93284280497
3.83376710609
0.551927770684
0.632803594077
3.84934517543
3.89995616058
3.95509676318
3.86109116252
3.94068198839
3.97103671681
3.91612119475
0.60450671813
0.701629336036
0.60450473442
0.628791898285
0.310973375612
0.626756511884
0.407708759577
0.491493786203
0.494685749647
0.332130852774
0.213079578467
0.361660662105
0.279050351523
0.568012424311
0.450333102846
0.438648622021
0.592830081707
0.547704979173
0.691786898306
0.493296015562
0.693624347243
0.707305552186
0.749141470658
0.664420932634
3.85100263118
3.99058348611
3.98460613169
3.78629821388
3.87036426617
3.92864618307
3.8741512406
3.81884527245
3.93280836293
-3.67159281619
-3.61679530957
0.101983379574
-3.87112872736
-3.76054270098
-3.11421141588
1.85965891623
-0.226833001017
-4.02855893778
-4.09447362798
-3.84227418864
-3.84219967943
-4.0293143723
-4.20771688712
-3.91455771617
-3.98039237557
-3.99948398605
-3.95885907515
-1.26017443801
-0.267556922187
-3.7804340604
-1.15563125449
-0.867451996303
-3.69199655483
3.86021535461
-0.879278416235
-1.15077428561
3.98552383001
-3.78252982586
-1.03162914083
-1.12548921077
-1.06066696373
-1.11599555215
3.88963884501
-1.07121889467
-1.65290673515
-1.53908419119
2.0044995289
1.55891232113
2.18679973877
2.4319413559
2.06596410943
2.13165094438
2.32360629538
2.42181978259
2.13772319511
2.24663985492
2.2117824321
1.88992969052
1.19382816899
2.40534708764
1.99620337621
2.13775923507
1.72491589027
2.08742067181
0.940322696663
1.7528191957
2.22139792258
2.3052329105
2.21944738104
2.2776854265
0.468968238364
-1.74642353085
2.43963600661
2.12505321687
-1.48829361822
-1.46933001149
4.28315480182
1.89814745224
2.06153405238
0.674699785996
0.616599244759
-2.02454695804
1.46534973712
-4.20990573934
-4.19677184917
-1.08514492207
2.32049240556
-1.6040863354
0.115617883199
-0.838656236585
-0.190501816829
-3.83504814368
4.63385759694
3.2305061626
-4.30891543649
-0.762621947447
-0.534333823926
-4.69788297551
-3.98545997054
-4.5700228423
-0.540579487275
-0.690427784092
-1.11697019128
-1.17837974383
-0.647918903119
-0.653725298735
-0.663343660696
-0.771585905194
-4.22702529413
-4.41304090769
-0.774332974404
-4.79816752364
-4.07855389994
-4.21181964804
-4.352931243
4.06789231858
4.71638720781
4.03878800104
4.51792718343
-4.18776600587
-4.68902422395
4.23889973719
4.57482327245
4.82425842119
1.74776833462
-5.04623114077
-4.03533585208

SCALARS scalar2 double
LOOKUP_TABLE default
3.97576166824
7.06851676223
4.11725363839
4.64150869414
-5.99642449803
-2.33144650916
8.48251801265
7.49851461434
5.52362742743
5.31233947097
5.78765994857
6.84825754176
7.78315889131
7.29075490519
6.0733671743
4.74125495527
4.16101842833
4.09812163995
4.29441025886
5.2830559711
6.27083335612
7.44153801944
7.53998477152
6.94259871589
5.86991015044
4.83309250016
4.13932609088
3.99184068503
4.52261446862
5.04317474561
7.38143037149
5.4517332615
9.19723457879
7.08441711144
6.41375736448
5.02881063423
4.21906157417
4.0832779723
4.1745630209
5.06520831181
6.07250866162
7.2555195822
7.5151306833
6.99114620976
5.96610415295
5.00476561541
3.8986847563
4.12291368588
4.78380372392
5.64257371744
6.88740305476
7.38319462588
7.76749126156
6.22972830469
3.62271739379
1.35635663381
-0.96094743323
-3.18440965128
-5.05260026035
-4.58891795041
-3.93078429202
-4.13811674351
-5.48756006444
-6.38218117369
-8.01202715424
-7.4201468164
-6.7232907551
-5.94403107043
-4.88641095635
-4.03696064162
-4.13662025291
-4.74375628087
-5.25497814292
-6.78936335562
-7.40140736526
-7.4715805089
-7.3109339126
-7.53397141628
-4.03478290067
-4.41613457236
-4.38851157864
-4.81510122059
-5.62957979455
-5.68212426414
-9.33736622728
-7.87749838374
-6.60826699913
-5.82500828519
-4.7466210831
-4.02392991354
-4.30588821152
-4.62669734661
-5.31982080474
-6.6108933229
-7.94803518687
-7.46121004333
-6.96089527059
-6.1319371575
-4.90583004112
-4.77995826777
-4.95916481868
-5.18284526905
-6.64280639106
-8.05175181298
-10.087373523
-12.5115689673
-13.0858997831
3.47431776569
0.0866295210524
-0.0313173395012
-1.75687738877
0.0505019448026
0.525964925938
0.791095484734
0.623046892388
0.853241770361
0.814020733349
1.16798506242
1.01273867257
1.12105435067
1.0948196092
1.06452319184
1.05603318707
1.11264136866
0.270841860921
0.366793171218
0.169090409022
2.28789312653
-0.615892367876
-1.70703221209
-1.45431686786
-1.75562805448
-1.56875804286
-1.4034438178
-1.5652618007
-1.25931169702
-1.35496199732
-1.56834348574
1.89691030053
1.14155934536
-1.17413190871
-1.5129327607
2.17842070149
1.66933967314
-0.207364310556
-1.61579129477
2.30666821862
2.34319586333
2.19806773329
2.20710769954
2.21479707003
2.13479841693
2.34099975876
2.32840581407
2.13312186188
1.1241778765
-2.28464978796
-2.1595427229
-2.05652534573
1.8928021176
2.09847090108
1.54643745284
2.50552386552
2.78533175293
2.09374805248
-2.51943938654
-2.17329004742
-1.55983607775
-3.19688509263
2.96746927295
2.58493578515
-2.46466226678
-2.37175575704
-2.62286039905
-2.23005974897
-2.51885263728
-2.58403116988
-2.42349690082
-2.54955442736
3.65544432898
3.46748839135
3.48663963534
3.50676832182
3.50084029781
3.7271694953
3.6885837327
3.85447167661
3.8910387242
-3.71242726373
-2.42183063508
-2.94746460168
-2.9707339472
2.24567061802
0.00569128632915
0.107801194737
-3.91807344561
-3.03489013417
0.161958041715
-0.0304673926057
3.91931155941
3.26598000261
3.94061326078
0.0115578929553
-3.56165213801
-3.4133771389
-3.61205279934
-3.23722570315
-3.6207303115
-3.58603078084
-3.49013841999
-3.69788520071
-3.67976037536
-3.50807682177
-3.45824109604
3.81573689951
3.55184184924
3.60086407632
3.32001063305
3.26115813673
3.60745157558
3.85331965242
3.57087906343
0.00277095680191
0.0574222302889
3.93284280497
3.83376710609
0.551927770684