# vtk DataFile Version 2.0
2D Simulation Python
ASCII
DATASET UNSTRUCTURED_GRID
FIELD FieldData 1
NODES 1 2 int
386 659

POINTS 386 double
0.0 1.0 0.0
1.725 0.9846879351234543 0.0
8.275 1.015312064876546 0.0
10.0 1.0 0.0
10.0 -2.4660342090558165e-17 0.0
0.0 0.0 0.0
0.1916666666663293 1.0114055510327513 0.0
0.3833333333324708 1.0187992266035197 0.0
0.574999999998553 1.0195803189068846 0.0
0.7666666666645966 1.0134740805819928 0.0
0.9583333333312576 1.0026283664435534 0.0
1.149999999998384 0.990858130656836 0.0
1.341666666665662 0.9823035256791329 0.0
1.533333333332819 0.9799736134749945 0.0
1.92348484848444 0.9952060328406112 0.0
2.121969696968978 1.007528525433583 0.0
2.320454545453434 1.0170173664258801 0.0
2.518939393937826 1.0201010636702683 0.0
2.717424242422235 1.0156189484927047 0.0
2.915909090906411 1.005258038219413 0.0
3.1143939393908 0.992918061985818 0.0
3.312878787875129 0.9832436469124765 0.0
3.511363636359531 0.9798761331263369 0.0
3.709848484843827 0.9840830146293181 0.0
3.90833333332816 0.9942808689292068 0.0
4.106818181812215 1.006631339309897 0.0
4.305303030296804 1.0164858487729236 0.0
4.503787878781365 1.0201352717052636 0.0
4.702272727265711 1.0162060066991894 0.0
4.900757575750005 1.0061769845456259 0.0
5.099242424235156 0.9938230154552677 0.0
5.297727272720327 0.9837939933013349 0.0
5.496212121205663 0.9798647282947468 0.0
5.694696969690998 0.9835141512266342 0.0
5.89318181817668 0.9933686606894406 0.0
6.09166666666213 1.005719131070204 0.0
6.290151515147423 1.015916985370343 0.0
6.488636363633031 1.020123866873647 0.0
6.687121212118713 1.0167563530877404 0.0
6.885606060604342 1.0070819380144695 0.0
7.084090909089381 0.9947419617808444 0.0
7.282575757574369 0.9843810515074312 0.0
7.481060606059355 0.9798989363297416 0.0
7.679545454544343 0.9829826335740448 0.0
7.878030303029329 0.9924714745663175 0.0
8.076515151514705 1.0047939671593362 0.0
8.46666666666447 1.0200263865249883 0.0
8.658333333329285 1.01769647432102 0.0
8.84999999999549 1.0091418693435095 0.0
9.041666666661694 0.9973716335568887 0.0
9.233333333327899 0.9865259194183598 0.0
9.42499999999549 0.9804196810932023 0.0
9.616666666663775 0.9812007733963952 0.0
9.808333333331985 0.9885944489671604 0.0
10.0 0.7999999999999998 0.0
10.0 0.6000000000013869 0.0
10.0 0.4000000000016644 0.0
10.0 0.2000000000008322 0.0
9.799999999999999 -0.01183605379723322 0.0
9.6 -0.019151137336595465 0.0
9.399999999999999 -0.01915113733659543 0.0
9.2 -0.011836053797233063 0.0
8.999999999999998 1.652741489099916e-16 0.0
8.799999999999997 0.011836053797233306 0.0
8.599999999999998 0.019151137336595507 0.0
8.399999999999997 0.019151137336595403 0.0
8.199999999999998 0.011836053797233011 0.0
7.999999999999997 -1.628081147009358e-16 0.0
7.799999999999997 -0.011836053797233306 0.0
7.599999999999998 -0.019151137336595507 0.0
7.399999999999997 -0.019151137336595403 0.0
7.199999999999998 -0.011836053797233076 0.0
6.999999999999997 1.6034208049188005e-16 0.0
6.799999999999997 0.011836053797233317 0.0
6.599999999999998 0.019151137336595507 0.0
6.399999999999997 0.019151137336595372 0.0
6.199999999999998 0.01183605379723305 0.0
5.999999999999997 -1.5787604628282417e-16 0.0
5.799999999999998 -0.011836053797233258 0.0
5.599999999999998 -0.019151137336595507 0.0
5.399999999999999 -0.019151137336595445 0.0
5.199999999999998 -0.01183605379723305 0.0
4.999999999999999 8.387009155952375e-17 0.0
4.799999999999999 0.011836053797233181 0.0
4.599999999999999 0.019151137336595507 0.0
4.399999999999999 0.019151137336595438 0.0
4.199999999999999 0.011836053797233102 0.0
3.999999999999999 -8.14040573504679e-17 0.0
3.799999999999999 -0.011836053797233199 0.0
3.599999999999999 -0.0191511373365955 0.0
3.399999999999998 -0.019151137336595438 0.0
3.199999999999998 -0.011836053797233004 0.0
2.999999999999999 7.893802314141208e-17 0.0
2.799999999999998 0.011836053797233228 0.0
2.599999999999998 0.01915113733659552 0.0
2.399999999999999 0.01915113733659545 0.0
2.199999999999999 0.011836053797233063 0.0
1.999999999999998 -1.301269293180396e-16 0.0
1.799999999999999 -0.011836053797233211 0.0
1.6 -0.01915113733659545 0.0
1.4 -0.01915113733659545 0.0
1.199999999999999 -0.011836053797233077 0.0
0.9999999999999982 1.1871840504470334e-16 0.0
0.7999999999999989 0.011836053797233211 0.0
0.6000000000000014 0.019151137336595434 0.0
0.3999999999999986 0.019151137336595434 0.0
0.1999999999999993 0.011836053797233093 0.0
0.0 0.1999999999995579 0.0
0.0 0.3999999999989749 0.0
0.0 0.5999999999989468 0.0
0.0 0.7999999999994734 0.0
0.6588465130954179 0.5514743342674776 0.0
9.341152950935573 0.5404631717600354 0.0
8.741433139589567 0.5723253008069122 0.0
1.2585638823281693 0.5625966762137039 0.0
8.162841800579196 0.5757906497730964 0.0
1.837142962866022 0.5698143733523612 0.0
2.4304410050368963 0.6043576109472243 0.0
7.56947774403621 0.5912506985111974 0.0
3.0304919205325245 0.6015628127433519 0.0
6.96902642678505 0.6008794484082417 0.0
3.628663618985696 0.5951104893668915 0.0
6.367982834127573 0.5964454126874326 0.0
4.229400566203063 0.5955254521905176 0.0
5.795134314510094 0.5230105418500322 0.0
4.802478397695554 0.5319263843727152 0.0
5.298820247220144 0.513486903759038 0.0
9.677454568425533 0.6951794948444939 0.0
0.32254528752669703 0.7058340571971282 0.0
4.53052525054911 0.3446482250263938 0.0
3.918822534984459 0.37082997907212617 0.0
6.067964845163737 0.33883514083093264 0.0
3.319411304358255 0.37164514029299095 0.0
6.679655544551396 0.37681837817206676 0.0
7.878986339225056 0.36507023700644736 0.0
2.1209820645804434 0.3697912585049775 0.0
2.7201099815253804 0.380288977038048 0.0
7.279714514680377 0.3701551615407358 0.0
9.037270446480695 0.6717609649357155 0.0
0.9627284330711257 0.6733182791476213 0.0
1.5320835393708006 0.3544604336038144 0.0
8.4679105055306 0.36622893989360633 0.0
8.458294438871128 0.6865864864408655 0.0
1.541699847886312 0.673415116614467 0.0
0.9793996512967275 0.3658072180127205 0.0
9.020599096413145 0.3648391875465637 0.0
4.52719963268057 0.6972884170920752 0.0
3.921402376865896 0.7000473938221442 0.0
6.069685766204026 0.6912976442729621 0.0
2.1183766644021897 0.6944225920915432 0.0
7.881594796195238 0.6894004794944398 0.0
3.323360880284896 0.699284388248713 0.0
6.675556802048062 0.7070306220451585 0.0
2.7253708600711515 0.7093042997231901 0.0
7.274462999143298 0.6982161830569535 0.0
0.3328395150903367 0.30875907035382105 0.0
9.66716032782387 0.2985056830150634 0.0
5.581324251375119 0.31393338024960193 0.0
5.017220541920392 0.3207909833650046 0.0
5.5094577470037915 0.6865788276083238 0.0
5.087392069825489 0.6918098492326787 0.0
0.6619003844163543 0.7412435191864832 0.0
9.338099213773123 0.7298632679909797 0.0
8.747624539184898 0.7448224465943268 0.0
1.2523732757108395 0.7352722159957875 0.0
8.670388210245417 0.2812098737218792 0.0
1.3296088786372298 0.27099082599492885 0.0
0.6804014800461984 0.24220335782796065 0.0
9.319598121809442 0.23164549274647098 0.0
8.16990826800507 0.748115278015053 0.0
1.8300807450116918 0.741662879076711 0.0
8.082241873512745 0.27951130402960683 0.0
1.9177428466183153 0.2767634867753246 0.0
7.485180822471276 0.2793765512270824 0.0
2.514735291485665 0.2917630061264725 0.0
6.8851611472174685 0.2877561353526993 0.0
3.11440461507618 0.28593572803863554 0.0
6.284935350923868 0.27530974133625463 0.0
3.713788829817219 0.2816316861725176 0.0
2.4224490971002277 0.8214679821241295 0.0
7.577504143363804 0.802653581501351 0.0
3.0216049174509045 0.814322036498108 0.0
6.9781063042767695 0.814430906569601 0.0
3.618459482967637 0.8053449455096695 0.0
6.37947506683673 0.8184903708649378 0.0
4.216884774630698 0.8158792463449925 0.0
5.793598437249559 0.8366229786066022 0.0
4.802574925021176 0.8489808254239921 0.0
5.2995793140264045 0.17706219605346504 0.0
4.313878816753194 0.2762768275871954 0.0
4.743204843124063 0.24381305796022065 0.0
5.8557250484962164 0.23330914130523456 0.0
5.298372051603592 0.7098443542471233 0.0
0.19483722422677616 0.5055153562803958 0.0
9.80516267729956 0.4987515636156203 0.0
9.486963300860793 0.1531435999152999 0.0
0.5130365241213641 0.17154087677439736 0.0
9.568925617570867 0.5063462197867473 0.0
0.4310741140924864 0.5180729398254482 0.0
9.509138694134704 0.8268829885575945 0.0
0.49086114435666545 0.8458199933149166 0.0
9.823684738751451 0.8232221257701212 0.0
0.1763152137389275 0.8322569146012597 0.0
7.690675791177573 0.1852500899136819 0.0
2.309290778975473 0.2001788231457541 0.0
8.876663875131394 0.19494385744153023 0.0
1.1233349245036457 0.18867838290551053 0.0
7.090880579702295 0.1921030919593805 0.0
2.9089428646271602 0.1982825449930726 0.0
6.49107635217176 0.19854569298235297 0.0
3.508532165995298 0.1864971576043677 0.0
1.7133212106139353 0.1811273162113936 0.0
8.286672627961732 0.1951475360187262 0.0
4.108122606073031 0.1928831057077976 0.0
8.57756027481971 0.8378612083073498 0.0
1.4224372095884361 0.8193070443942775 0.0
8.923333116787317 0.8283773468809438 0.0
1.0766659219393833 0.8242216957147972 0.0
0.8418679882482893 0.8292630275282293 0.0
9.158131524924784 0.8205556409286251 0.0
8.345850557211437 0.8381784648764615 0.0
1.6541445878562413 0.8212530614644064 0.0
5.592449129345168 0.4971305762131013 0.0
5.005265061690682 0.5040007055753625 0.0
7.7894052788517785 0.8330705931353402 0.0
2.210572622295134 0.8457197639796831 0.0
7.776865406790664 0.5477759833256853 0.0
2.223088294779794 0.5561838580794299 0.0
2.8152763972384425 0.8503705448299872 0.0
7.18459074120368 0.8386506384555777 0.0
3.412055048165413 0.8352258810696033 0.0
6.587034919498896 0.8521066702683779 0.0
4.009202211282401 0.8428504468814475 0.0
5.984832337286565 0.8425726862929863 0.0
4.611344643485724 0.8529151453811481 0.0
7.175166436534222 0.5561150666462609 0.0
2.8245666750595944 0.5640844790622687 0.0
6.575204216640848 0.5606902200152408 0.0
3.423088597767612 0.554858833188737 0.0
5.978031030421062 0.5301696382508698 0.0
4.022407763463898 0.555513817332243 0.0
4.619575384649033 0.5378281119490654 0.0
8.548997642440519 0.5470985052672312 0.0
[...]
POINT_DATA 386
VECTORS vector double
1.0 0.0 0.0
0.0 0.0 0.0
0.0 0.0 0.0
0.0 0.0 0.0
0.0 0.0 0.0
1.0 0.0 0.0
0.0 0.0 0.0
0.0 0.0 0.0
0.0 0.0 0.0
0.0 0.0 0.0
0.0 0.0 0.0
0.0 0.0 0.0
0.0 0.0 0.0
0.0 0.0 0.0
0.0 0.0 0.0
0.0 0.0 0.0
0.0 0.0 0.0
0.0 0.0 0.0
0.0 0.0 0.0
0.0 0.0 0.0
0.0 0.0 0.0
0.0 0.0 0.0
0.0 0.0 0.0
0.0 0.0 0.0
0.0 0.0 0.0
0.0 0.0 0.0
0.0 0.0 0.0
0.0 0.0 0.0
0.0 0.0 0.0
0.0 0.0 0.0
0.0 0.0 0.0
0.0 0.0 0.0
0.0 0.0 0.0
0.0 0.0 0.0
0.0 0.0 0.0
0.0 0.0 0.0
0.0 0.0 0.0
0.0 0.0 0.0
0.0 0.0 0.0
0.0 0.0 0.0
0.0 0.0 0.0
0.0 0.0 0.0
0.0 0.0 0.0
0.0 0.0 0.0
0.0 0.0 0.0
0.0 0.0 0.0
0.0 0.0 0.0
0.0 0.0 0.0
0.0 0.0 0.0
0.0 0.0 0.0
0.0 0.0 0.0
0.0 0.0 0.0
0.0 0.0 0.0
0.0 0.0 0.0
0.8992604533 0.0933812680482 0.0
1.40208583339 0.00269804254743 0.0
1.42162560835 -0.00610383171628 0.0
1.01028687963 -0.0874223518919 0.0
0.0 0.0 0.0
0.0 0.0 0.0
0.0 0.0 0.0
0.0 0.0 0.0
0.0 0.0 0.0
0.0 0.0 0.0
0.0 0.0 0.0
0.0 0.0 0.0
0.0 0.0 0.0
0.0 0.0 0.0
0.0 0.0 0.0
0.0 0.0 0.0
0.0 0.0 0.0
0.0 0.0 0.0
0.0 0.0 0.0
0.0 0.0 0.0
0.0 0.0 0.0
0.0 0.0 0.0
0.0 0.0 0.0
0.0 0.0 0.0
0.0 0.0 0.0
0.0 0.0 0.0
0.0 0.0 0.0
0.0 0.0 0.0
0.0 0.0 0.0
0.0 0.0 0.0
0.0 0.0 0.0
0.0 0.0 0.0
0.0 0.0 0.0
0.0 0.0 0.0
0.0 0.0 0.0
0.0 0.0 0.0
0.0 0.0 0.0
0.0 0.0 0.0
0.0 0.0 0.0
0.0 0.0 0.0
0.0 0.0 0.0
0.0 0.0 0.0
0.0 0.0 0.0
0.0 0.0 0.0
0.0 0.0 0.0
0.0 0.0 0.0
0.0 0.0 0.0
0.0 0.0 0.0
0.0 0.0 0.0
0.0 0.0 0.0
0.0 0.0 0.0
0.0 0.0 0.0
0.0 0.0 0.0
1.0 0.0 0.0
1.0 0.0 0.0
1.0 0.0 0.0
1.0 0.0 0.0
1.23475299196 -0.0405755659428 0.0
1.46268447443 -0.0368355071399 0.0
1.44025332687 -0.0111459751631 0.0
1.35562719473 -0.0305026290297 0.0
1.43895477562 0.0293858559309 0.0
1.40975844393 0.025528438711 0.0
1.38999399136 0.0179017032058 0.0
1.4231156148 -0.00477675918492 0.0
1.40276168918 -0.0276002817599 0.0
1.40765052863 -0.0219158477295 0.0
1.41912984627 -0.00394339738576 0.0
1.40910643475 0.0196201107336 0.0
1.41043284276 0.0221566574003 0.0
1.45703106897 0.0187478658011 0.0
1.45704176752 -0.0168600366756 0.0
1.49230957085 -0.0179512064658 0.0
1.26663958194 -0.00202049532106 0.0
1.11285065908 -0.0982764450172 0.0
1.33174829598 0.01451025624 0.0
1.36120363139 0.0217948638305 0.0
1.30660844019 0.0207234849317 0.0
1.37017304781 -0.0220666160043 0.0
1.37189664039 -0.00387950516636 0.0
1.35940298505 0.0217645881933 0.0
1.36475304987 0.0426877846989 0.0
1.38893960727 -0.00581494190281 0.0
1.36611002508 -0.0279611557254 0.0
1.31607146185 -0.0359490536207 0.0
1.23875819424 -0.0553697927793 0.0
1.34976119495 0.0225912991982 0.0
1.36147434245 0.0143581125979 0.0
1.30177313414 0.0107166838809 0.0
1.27399176119 -0.00221936015972 0.0
1.34602645924 -0.00690074855192 0.0
1.37690238006 -0.0393099104793 0.0
1.25156443122 -0.000551009177478 0.0
1.24335461937 0.0269387918185 0.0
1.27379544669 0.0349253477213 0.0
1.24955122089 0.0401898663283 0.0
1.28223230904 0.0194680195125 0.0
1.24307441946 -0.024271382204 0.0
1.23201757418 -0.00877098377767 0.0
1.21802029876 -0.00897868970422 0.0
1.24840237315 -0.0297318560768 0.0
1.15278356367 0.109785725676 0.0
1.28801312232 -0.0199344402825 0.0
1.26385713168 0.00212555691296 0.0
1.2807858601 -0.0276184031474 0.0
1.24481083427 0.018713737849 0.0
1.23259780058 -0.0477751466713 0.0
1.1531441644 -0.0690621299301 0.0
1.19238022548 -0.034111807908 0.0
1.16862955321 -0.0133206058409 0.0
1.14108288893 -0.0415813945695 0.0
1.19377096612 -0.000426665324987 0.0
1.22260258184 -0.00933189719921 0.0
1.21353713609 0.02291191761 0.0
1.11538925903 -0.0350093149794 0.0
1.16357946587 0.0294141179304 0.0
1.14749789375 0.0207043200705 0.0
1.18805534581 0.0388226123144 0.0
1.2107472282 0.0277967957388 0.0
1.19433789232 -0.00319277980836 0.0
1.22477817728 0.0105913742734 0.0
1.20987813105 -0.0159104719907 0.0
1.21056154995 -0.0418999968889 0.0
1.18044040416 0.029959883957 0.0
1.20181031994 -0.0031572128949 0.0
0.891328982542 0.0130554469437 0.0
0.966075401821 -0.000200010660096 0.0
0.939694693732 -0.0320354085289 0.0
0.942658829855 -0.031131585848 0.0
0.952407774716 0.0016675936154 0.0
0.908274581079 0.0183823459361 0.0
0.901044280889 0.0273001735055 0.0
0.842580686947 0.0192884579663 0.0
0.804359430339 -0.0194186374401 0.0
0.900258251497 -0.0200239995907 0.0
1.18965364531 0.0236075785504 0.0
1.01989725795 -0.0397585714693 0.0
0.982064392515 0.0390616363961 0.0
1.14580401618 -0.0146005428804 0.0
1.00948478483 -0.000584046254106 0.0
1.47493883953 -0.0111172858619 0.0
0.820991649433 -0.0124607063784 0.0
1.11775744003 0.0742593008337 0.0
1.48246053426 -0.0214457897104 0.0
1.13547416888 -0.0123358887926 0.0
0.83185247262 -0.0175257041166 0.0
0.995412687918 -0.0635054977743 0.0
0.776314857849 -0.0502018736379 0.0
1.10810691101 -0.152968840293 0.0
0.920735791227 0.00255161033366 0.0
0.996249842717 0.0403196770822 0.0
0.927744191957 -0.0377785894421 0.0
1.02278253347 -0.00726558319005 0.0
0.923899559713 -0.0412290000157 0.0
0.952684956242 -0.0182293295275 0.0
0.965801967669 0.000459799098415 0.0
0.920252035316 0.00110828090204 0.0
0.9616301644 0.0343762112587 0.0
0.95845727465 0.0179965800268 0.0
0.962845733279 0.0420067160043 0.0
0.823322190312 -0.0070944659816 0.0
0.889834187724 -0.0136046749594 0.0
0.870069717869 -0.0191095432998 0.0
0.907881699715 -0.0618361478067 0.0
0.929474793532 -0.0492195833764 0.0
0.88924572776 -0.0465611062194 0.0
0.814054621505 0.0303656319252 0.0
0.870479420223 -0.00444162000305 0.0
1.46101983343 -0.0109913217578 0.0
1.46576757519 -0.01101393819 0.0
0.821483915527 0.014108339875 0.0
0.775099082506 0.0323272052075 0.0
1.48764820759 0.0183964313727 0.0
1.45895030347 0.0303442710027 0.0
0.797112936454 -0.0221060679483 0.0
0.844560285601 -0.0284240373236 0.0
0.84292066279 -0.0218993543755 0.0
0.782877998425 0.000504185725356 0.0
0.784285220729 0.0273178534788 0.0
0.819883710187 0.0348740361218 0.0
0.78675462143 -0.0079905490716 0.0
1.47919961097 -0.0241247713963 0.0
1.46961645132 -0.0261588273411 0.0
1.4737341696 0.012274363827 0.0
1.48075605519 -0.0239591359021 0.0
1.47154753145 0.0271221924453 0.0
1.47876394347 0.0189123204049 0.0
1.47611238434 -0.00674181774861 0.0
1.47595559875 0.000578734518777 0.0
1.41255256476 -0.00107028902364 0.0
1.34975823452 -0.0376388604214 0.0
1.31415826294 -0.0373132920818 0.0
1.48662225925 -0.0301954347162 0.0
1.48299866406 -0.0475887086882 0.0
1.46215325275 0.0143959070661 0.0
1.44109482851 0.0173601422416 0.0
1.49194397947 0.0196790279025 0.0
1.44821489259 0.0428906113827 0.0
1.4727707748 0.0231700329897 0.0
1.46434387958 0.0264668226811 0.0
1.45652177846 0.0272493678761 0.0
1.45794734598 -0.0167992908694 0.0
1.45693412003 -0.0265626616222 0.0
1.44476308323 0.0138841253428 0.0
1.46285795471 -0.0318521886811 0.0
0.76846540256 0.00919869673289 0.0
0.804801693809 0.0248070303274 0.0
0.790991097971 0.0329742531755 0.0
0.82310590766 0.0472624359431 0.0
0.830377911896 0.0131069775477 0.0
0.839844821146 -0.0270775515434 0.0
0.799637596533 -0.019799123467 0.0
0.77512844771 -0.00214814927726 0.0
0.849299357503 -0.0240653268536 0.0
0.914862465955 0.0187932247385 0.0
0.882523451511 -0.0423422174021 0.0
1.17709736149 0.194035325511 0.0
0.866549651822 -0.00467939178425 0.0
0.880966368474 -0.0258252201904 0.0
1.04864963293 -0.0267593616548 0.0
1.33396880751 -0.0411020381019 0.0
1.1870322562 -0.0866881502746 0.0
0.868032336549 -0.00337320742071 0.0
0.853718791602 0.0170902613021 0.0
0.834679733086 0.0365181194066 0.0
0.888371489751 0.0308308689977 0.0
0.812032997506 0.0529055507518 0.0
0.827910613462 -0.00632549120795 0.0
0.807661889121 -0.0141852449866 0.0
0.870237099466 -0.0131678977572 0.0
0.854833586287 -0.00538495280182 0.0
0.813849190643 -0.0328957671916 0.0
1.40910028707 -0.0213223101594 0.0
1.36072762191 -0.00924845438888 0.0
0.850011320142 0.0162591369449 0.0
1.40798040638 0.0324074841927 0.0
1.39075599524 0.0282144657227 0.0
0.876435672475 -0.0304823040438 0.0
0.886245001371 0.0911360952665 0.0
1.42662327676 0.0266337968273 0.0
1.41220577844 0.00980700095174 0.0
0.867777456186 -0.0186011904856 0.0
0.856536544052 -0.00527195984517 0.0
1.43256612577 -0.029116453145 0.0
1.42315968882 -0.0237982545304 0.0
1.41893339188 0.0234486721408 0.0
1.41760415476 -0.0143617100297 0.0
0.832672057049 -0.00941991536523 0.0
1.41742627736 0.0197415544479 0.0
1.34431622669 0.0394162580335 0.0
1.3701002216 -0.0479923322787 0.0
1.28598670034 0.00991396186383 0.0
1.26001460994 -0.0334018390102 0.0
1.26136076376 -0.0103526381243 0.0
1.26401932886 0.0352075622239 0.0
1.28933512205 0.0248438319309 0.0
1.27441784019 0.000428767724214 0.0
1.24132158992 0.0352714709314 0.0
1.26057612598 0.00336067990488 0.0
1.26591558663 -0.00799828902079 0.0
1.23871032602 -0.0159122194071 0.0
1.25999112304 -0.036738425955 0.0
1.29555705381 -0.0328512084567 0.0
1.24081159182 -0.0448059546756 0.0
1.26489458952 0.0128260736305 0.0
1.27140519618 0.0242661736832 0.0
1.29508460441 0.0375403892251 0.0
1.27708620733 0.0182616816938 0.0
1.28821843199 0.0164897280498 0.0
1.21584654748 -0.0730421928215 0.0
1.32229897015 -0.0297292173712 0.0
1.26264499598 0.0042854641168 0.0
1.27795584364 0.0315581131976 0.0
1.25221441849 -0.037711358228 0.0
1.24854895512 -0.012022956177 0.0
1.2603817736 0.0560968725794 0.0
1.35956685319 -0.0251198156199 0.0
1.23693074659 -0.000397894301215 0.0
1.27081015229 -0.01160401434 0.0
1.35222086477 -0.0229002827471 0.0
1.35970014984 -0.0119948902125 0.0
0.903706187983 -0.134892188445 0.0
1.30846523538 -0.00534518556993 0.0
1.28460898597 -0.00631310672956 0.0
1.47754209017 -0.0234458836863 0.0
1.47893522812 -0.00788459080055 0.0
1.31230862595 -0.000279302209397 0.0
1.03143194958 0.0942504267544 0.0
0.708429823606 -0.00979359802443 0.0
1.16176830137 0.162433527014 0.0
1.01283315792 -0.0910142576931 0.0
1.2984586471 -0.00135278866669 0.0
1.36491006113 -0.0357893116476 0.0
1.29687701445 0.00626788780413 0.0
1.46078944935 -0.0137711739522 0.0
1.38841090062 0.0141849848448 0.0
0.84156002421 0.102190480754 0.0
0.693729769663 0.0372023925697 0.0
1.06425621494 -0.115704376092 0.0
0.86527794552 -0.0787610517674 0.0
1.45156117818 0.019675707174 0.0
1.43082576165 0.0527131699433 0.0
0.693644711314 0.0468895069877 0.0
0.666458514755 0.0168033224308 0.0
0.683106346767 0.00327086140591 0.0
1.46771305412 0.0271368720431 0.0
1.4552882574 -0.0277870536321 0.0
1.44973180834 -0.0214118016394 0.0
1.42325852761 0.0318844803735 0.0
1.46337883379 -0.016956964576 0.0
1.46789019243 -0.0331178623528 0.0
1.45876537533 0.0211478256216 0.0
1.46004022509 0.0259413251569 0.0
0.653377084388 -0.0218024423699 0.0
0.663918425274 -0.0337734104722 0.0
1.46793682397 0.025171616725 0.0
0.724900272773 0.0217336206311 0.0
0.645676900843 -0.0168182960005 0.0
0.714954345542 0.0413499330853 0.0
0.69404255768 0.0225710576911 0.0
0.774781694404 -0.0329339473212 0.0
0.685461681539 -0.0446143836099 0.0
0.653767060327 -0.0111632721924 0.0
0.725428741894 -0.0403970104231 0.0
0.739746700363 0.0146525512955 0.0
0.681012460197 -0.028343536852 0.0
0.617421925747 0.0326278227255 0.0
0.65221147606 0.0147174202973 0.0
0.495796475105 0.0472287326641 0.0
1.12854634466 -0.0251258595523 0.0
0.819422384811 -0.016073045189 0.0
0.582523440549 0.00312367838246 0.0

SCALARS scalar1 double
LOOKUP_TABLE default
2.98466237357
5.71740737716
5.08846794058
4.94477403033
-6.00863541888
-2.59319582381
9.76053137633
8.75835341397
6.84142294329
6.36128534072
5.97794110511
6.15369375124
6.25178155348
5.781630192
5.58799472066
5.21413832104
5.08796152983
5.20586609282
5.35018382515
5.64436299191
5.8495080121
6.02332065812
5.94824758612
5.70602176702
5.39384668108
5.23925874218
5.02978361279
5.17212342158
5.49831437102
5.52945711976
7.14835383513
4.5244538028
7.63750635073
5.93909889576
5.89956354747
5.47360527369
5.12348709027
5.21317066105
5.30550854839
5.56665864448
5.83392557832
6.00410250401
5.96595423644
5.70432843839
5.36971941406
5.42618845735
4.9936846971
5.30160230076
5.52083474543
5.5386170972
5.78038598616
5.71959720265
6.09457025874
5.26470104144
3.72427113405
1.30461265267
-1.00344537823
-3.08026851939
-5.95958637651
-5.7706036242
-5.10222882212
-4.90786135287
-5.4139842475
-5.4244604158
-6.181346529
-6.05720308125
-5.85726859546
-5.9431677583
-5.49965802346
-5.11321075461
-5.32556696416
-5.32629799218
-5.19182882117
-5.8027032722
-6.0527154182
-5.84380169117
-6.07325270061
-7.32716862646
-4.63326960269
-5.41783630235
-5.29137875589
-5.39692786757
-5.65113135081
-4.93425436852
-7.50099173374
-6.26378306546
-5.78000209911
-5.89937517491
-5.6736171951
-5.12889163659
-5.23606536209
-5.33001957074
-5.29038975087
-5.79350920955
-6.18045289761
-5.94130818827
-6.24483790361
-6.31640015074
-5.74644617603
-5.85249417142
-6.29239293782
-5.97056271374
-6.60247849581
-6.82060574794
-7.9669235604
-10.7911575752
-11.8788942024
2.90805363741
-0.0384342874939
-0.00530750619821
-2.79343038791
0.102232535038
0.521494185514
0.776393273967
0.618558566788
0.805085415257
0.793469183328
1.09802550397
1.07076952022
1.15267060469
1.09708475552
1.12886290575
0.973710999822
1.02885006237
0.222664471996
0.362923570794
0.191361819296
2.56831265972
-0.689391300577
-1.92513021278
-1.47300575157
-1.77425512946
-1.42986285978
-1.58398541839
-1.49762829263
-1.36654575377
-1.45789633612
-1.47808108601
1.94142171276
1.14000754434
-1.01502822833
-1.70669121019
2.01285349938
1.8986639135
-0.18565142471
-1.61733482253
2.1096918149
2.44413274741
2.07661724885
2.12218276351
2.32474310896
2.35385044172
2.15982008436
2.16424733536
2.31628811308
0.890038927233
-2.08096139522
-1.94034332833
-2.05384548422
2.20193195912
2.23106827351
1.04405811435
2.82966909976
2.54637234543
2.37515540432
-2.89674392515
-1.87171591067
-2.4153888408
-2.90533345266
2.81194558115
2.86879997613
-2.54559057489
-2.21911034698
-2.34271125141
-2.63325273714
-2.68824314623
-2.54248991509
-2.723263275
-2.28450577005
3.44383410725
3.7695536176
3.35317698665
3.36957529414
3.81855265848
3.51200607593
3.63261541612
4.22958068267
3.69289367796
-3.59729957034
-2.708722247
-3.20663362584
-2.76254891916
2.38898646144
0.0620544333346
0.0812566400431
-3.73719214525
-3.46741980694
0.145977929264
0.0738550469752
4.14088440277
2.89823669886
4.21552842777
-0.261392265997
-3.33600309809
-3.53645813078
-3.83105713551
-3.28244362435
-3.64276295908
-3.86579091746
-3.72920721739
-3.41795090559
-3.31636769368
-3.60182429495
-3.38861731877
3.61202541753
3.68264750541
3.48492925243
3.2005694589
3.00120602439
3.57792947581
3.72299298063
3.87626078021
-0.0253309183917
0.0434311135647
4.10102028059
3.82790442298
0.509865505071
0.62444966868
3.66088014488
3.83282050096
4.02517616043
3.79480984501
4.11138598052
4.16366850615
3.76796629968
0.601778770157
0.722255181831
0.601403939256
0.62152118576
0.273362505404
0.592223393916
0.417076983837
0.48041526721
0.476437005909
0.328094447795
0.220163240933
0.352441498784
0.275716670117
0.562781274336
0.42855336543
0.422537399265
0.574881416062
0.493873112273
0.6608203761
0.467385757211
0.70851764007
0.711596655989
0.760530494447
0.648278458724
3.81472803384
4.14174134596
3.97470945075
3.87587804589
4.05503036828
3.84163451794
3.70751265348
3.74237117006
3.99455125555
-3.57181646449
-3.37094234695
0.275853066974
-3.73022307441
-3.7823952315
-3.44824029141
2.01658777345
-0.24108154057
-3.79544604825
-4.16224676064
-3.74954253387
-3.76084977455
-3.96231974232
-4.30430894004
-3.85938516548
-4.2351758132
-4.15829355823
-3.84253571439
-1.2888995543
-0.242961259736
-3.61979198788
-1.24966851466
-0.850482848708
-3.73208949553
3.67376175641
-0.952441036329
-1.11047597699
4.05428814923
-3.61118573378
-1.00757513535
-1.09349001762
-1.16581078754
-1.06194953484
3.74412266835
-1.13221441977
-1.55367738912
-1.59158682569
1.93273743593
1.70687096108
2.09602338205
2.31103470161
2.07104828162
2.49861118469
2.13709498821
2.10252589252
2.4114938496
2.23820616241
2.25030695829
1.84594211998
1.25886632662
2.16431477808
2.02288163761
2.07536393579
1.80651692523
1.97154760652
0.81385338379
1.82409289196
2.58815523562
2.10751825785
2.30300928758
2.24273488406
0.426280213817
-1.66075214589
2.12779489885
2.3874533258
-1.37553460555
-1.39638057906
3.57324342092
2.07772316988
2.06631456304
0.703299816354
0.670728246577
-2.00592259945
1.42579477301
-4.27637372367
-3.42626572062
-1.10524555722
2.34993146271
-1.55365855789
0.162563526018
-0.839489825411
-0.206636862683
-3.91525175287
4.57350974256
3.84417390922
-4.46489560044
-0.799970999817
-0.5746156176
-4.2867823371
-4.12799082006
-4.33318315332
-0.516861273731
-0.697188156663
-1.12775753765
-1.1839136085
-0.608922660531
-0.643147952235
-0.697705703182
-0.79057189708
-4.30408871413
-4.43829323484
-0.776176178652
-4.3890229589
-4.1748056574
-4.25284101972
-4.19809863949
4.14034565238
4.28259443435
4.19438922767
4.12435748
-4.46201047602
-4.56826743291
4.42220209382
4.4151586854
4.46216776332
1.00601274107
-4.74222731222
-4.32849355722

SCALARS scalar2 double
LOOKUP_TABLE default
2.98466237357
5.71740737716
5.08846794058
4.94477403033
-6.00863541888
-2.59319582381
9.76053137633
8.75835341397
6.84142294329
6.36128534072
5.97794110511
6.15369375124
6.25178155348
5.781630192
5.58799472066
5.21413832104
5.08796152983
5.20586609282
5.35018382515
5.64436299191
5.8495080121
6.02332065812
5.94824758612
5.70602176702
5.39384668108
5.23925874218
5.02978361279
5.17212342158
5.49831437102
5.52945711976
7.14835383513
4.5244538028
7.63750635073
5.93909889576
5.89956354747
5.47360527369
5.12348709027
5.21317066105
5.30550854839
5.56665864448
5.83392557832
6.00410250401
5.96595423644
5.70432843839
5.36971941406
5.42618845735
4.9936846971
5.30160230076
5.52083474543
5.5386170972
5.78038598616
5.71959720265
6.09457025874
5.26470104144
3.72427113405
1.30461265267
-1.00344537823
-3.08026851939
-5.95958637651
-5.7706036242
-5.10222882212
-4.90786135287
-5.4139842475
-5.4244604158
-6.181346529
-6.05720308125
-5.85726859546
-5.9431677583
-5.49965802346
-5.11321075461
-5.32556696416
-5.32629799218
-5.19182882117
-5.8027032722
-6.0527154182
-5.84380169117
-6.07325270061
-7.32716862646
-4.63326960269
-5.41783630235
-5.29137875589
-5.39692786757
-5.65113135081
-4.93425436852
-7.50099173374
-6.26378306546
-5.78000209911
-5.89937517491
-5.6736171951
-5.12889163659
-5.23606536209
-5.33001957074
-5.29038975087
-5.79350920955
-6.18045289761
-5.94130818827
-6.24483790361
-6.31640015074
-5.74644617603
-5.85249417142
-6.29239293782
-5.97056271374
-6.60247849581
-6.82060574794
-7.9669235604
-10.7911575752
-11.8788942024
2.90805363741
-0.0384342874939
-0.00530750619821
-2.79343038791
0.102232535038
0.521494185514
0.776393273967
0.618558566788
0.805085415257
0.793469183328
1.09802550397
1.07076952022
1.15267060469
1.09708475552
1.12886290575
0.973710999822
1.02885006237
0.222664471996
0.362923570794
0.191361819296
2.56831265972
-0.689391300577
-1.92513021278
-1.47300575157
-1.77425512946
-1.42986285978
-1.58398541839
-1.49762829263
-1.36654575377
-1.45789633612
-1.47808108601
1.94142171276
1.14000754434
-1.01502822833
-1.70669121019
2.01285349938
1.8986639135
-0.18565142471
-1.61733482253
2.1096918149
2.44413274741
2.07661724885
2.12218276351
2.32474310896
2.35385044172
2.15982008436
2.16424733536
2.31628811308
0.890038927233
-2.08096139522
-1.94034332833
-2.05384548422
2.20193195912
2.23106827351
1.04405811435
2.82966909976
2.54637234543
2.37515540432
-2.89674392515
-1.87171591067
-2.4153888408
-2.90533345266
2.81194558115
2.86879997613
-2.54559057489
-2.21911034698
-2.34271125141
-2.63325273714
-2.68824314623
-2.54248991509
-2.723263275
-2.28450577005
3.44383410725
3.7695536176
3.35317698665
3.36957529414
3.81855265848
3.51200607593
3.63261541612
4.22958068267
3.69289367796
-3.59729957034
-2.708722247
-3.20663362584
-2.76254891916
2.38898646144
0.0620544333346
0.0812566400431
-3.73719214525
-3.46741980694
0.145977929264
0.0738550469752
4.14088440277
2.89823669886
4.21552842777
-0.261392265997
-3.33600309809
-3.53645813078
-3.83105713551
-3.28244362435
-3.64276295908
-3.86579091746
-3.72920721739
-3.41795090559
-3.31636769368
-3.60182429495
-3.38861731877
3.61202541753
3.68264750541
3.48492925243
3.2005694589
3.00120602439
3.57792947581
3.72299298063
3.87626078021
-0.0253309183917
0.0434311135647