# vtk DataFile Version 2.0
2D Simulation Python
ASCII
DATASET UNSTRUCTURED_GRID
FIELD FieldData 1
NODES 1 2 int
386 659

POINTS 386 double
0.0 1.0 0.0
1.725 0.9646817582399756 0.0
8.275 1.0353182417600242 0.0
10.0 1.0 0.0
10.0 -5.688063176726376e-17 0.0
0.0 0.0 0.0
0.1916666666663293 1.0263076216061517 0.0
0.3833333333324708 1.0433615998519974 0.0
0.574999999998553 1.0451632384310905 0.0
0.7666666666645966 1.0310788152561847 0.0
0.9583333333312576 1.006062492696824 0.0
1.149999999998384 0.978913702743319 0.0
1.341666666665662 0.9591819677226016 0.0
1.533333333332819 0.9538078785211221 0.0
1.92348484848444 0.9889424128953203 0.0
2.121969696968978 1.0173650179452327 0.0
2.320454545453434 1.0392516271576657 0.0
2.518939393937826 1.0463643690164646 0.0
2.717424242422235 1.0360260881435839 0.0
2.915909090906411 1.0121279962248013 0.0
3.1143939393908 0.9836650640569377 0.0
3.312878787875129 0.9613504165419262 0.0
3.511363636359531 0.9535830339591047 0.0
3.709848484843827 0.963286471031506 0.0
3.90833333332816 0.986808464080835 0.0
4.106818181812215 1.015295601659737 0.0
4.305303030296804 1.0380256482241783 0.0
4.503787878781365 1.0464432720030847 0.0
4.702272727265711 1.0373801748608884 0.0
4.900757575750005 1.0142476037875543 0.0
5.099242424235156 0.985752396214507 0.0
5.297727272720327 0.9626198251403205 0.0
5.496212121205663 0.953556727996938 0.0
5.694696969690998 0.9619743517748 0.0
5.89318181817668 0.9847043983387332 0.0
6.09166666666213 1.0131915359178063 0.0
6.290151515147423 1.036713528967712 0.0
6.488636363633031 1.0464169660408567 0.0
6.687121212118713 1.0386495834585723 0.0
6.885606060604342 1.0163349359437257 0.0
7.084090909089381 0.9878720037757911 0.0
7.282575757574369 0.9639739118567289 0.0
7.481060606059355 0.9536356309835597 0.0
7.679545454544343 0.9607483728421609 0.0
7.878030303029329 0.9826349820545379 0.0
8.076515151514705 1.0110575871045586 0.0
8.46666666666447 1.0461921214788368 0.0
8.658333333329285 1.0408180322777505 0.0
8.84999999999549 1.0210862972574775 0.0
9.041666666661694 0.9939375073041957 0.0
9.233333333327899 0.9689211847446286 0.0
9.42499999999549 0.954836761569112 0.0
9.616666666663775 0.9566384001478061 0.0
9.808333333331985 0.9736923783936455 0.0
10.0 0.7999999999999998 0.0
10.0 0.6000000000013869 0.0
10.0 0.4000000000016644 0.0
10.0 0.2000000000008322 0.0
9.799999999999999 -0.027300603338982626 0.0
9.6 -0.04417330411585246 0.0
9.399999999999999 -0.044173304115852394 0.0
9.2 -0.02730060333898226 0.0
8.999999999999998 3.8121523092725125e-16 0.0
8.799999999999997 0.027300603338982862 0.0
8.599999999999998 0.04417330411585256 0.0
8.399999999999997 0.04417330411585229 0.0
8.199999999999998 0.02730060333898214 0.0
7.999999999999997 -3.755271677505248e-16 0.0
7.799999999999997 -0.027300603338982862 0.0
7.599999999999998 -0.04417330411585256 0.0
7.399999999999997 -0.04417330411585229 0.0
7.199999999999998 -0.027300603338982286 0.0
6.999999999999997 3.6983910457379854e-16 0.0
6.799999999999997 0.027300603338982866 0.0
6.599999999999998 0.04417330411585256 0.0
6.399999999999997 0.04417330411585227 0.0
6.199999999999998 0.027300603338982262 0.0
5.999999999999997 -3.6415104139707204e-16 0.0
5.799999999999998 -0.027300603338982727 0.0
5.599999999999998 -0.04417330411585256 0.0
5.399999999999999 -0.0441733041158524 0.0
5.199999999999998 -0.027300603338982262 0.0
4.999999999999999 1.9345164705198885e-16 0.0
4.799999999999999 0.027300603338982578 0.0
4.599999999999999 0.044173304115852526 0.0
4.399999999999999 0.04417330411585238 0.0
4.199999999999999 0.027300603338982356 0.0
3.999999999999999 -1.877635838752624e-16 0.0
3.799999999999999 -0.02730060333898259 0.0
3.599999999999999 -0.0441733041158525 0.0
3.399999999999998 -0.04417330411585238 0.0
3.199999999999998 -0.027300603338982148 0.0
2.999999999999999 1.8207552069853602e-16 0.0
2.799999999999998 0.02730060333898265 0.0
2.599999999999998 0.04417330411585257 0.0
2.399999999999999 0.0441733041158524 0.0
2.199999999999999 0.027300603338982286 0.0
1.999999999999998 -3.0014595589807726e-16 0.0
1.799999999999999 -0.027300603338982585 0.0
1.6 -0.04417330411585244 0.0
1.4 -0.04417330411585244 0.0
1.199999999999999 -0.027300603338982307 0.0
0.9999999999999982 2.7383147632530647e-16 0.0
0.7999999999999989 0.027300603338982585 0.0
0.6000000000000014 0.04417330411585239 0.0
0.3999999999999986 0.04417330411585239 0.0
0.1999999999999993 0.027300603338982352 0.0
0.0 0.1999999999995579 0.0
0.0 0.3999999999989749 0.0
0.0 0.5999999999989468 0.0
0.0 0.7999999999994734 0.0
0.6588438509266493 0.5536978881042931 0.0
9.341155570541568 0.538224455638385 0.0
8.741438519001445 0.5737217298710529 0.0
1.2585583417000419 0.5611702067413858 0.0
8.162848626845895 0.57706611810114 0.0
1.837135719085439 0.568502216978068 0.0
2.4304338043536773 0.6086985505469416 0.0
7.569484095797415 0.5868760178384392 0.0
3.0304847858848407 0.6014522036009846 0.0
6.969031972885752 0.6009615825192057 0.0
3.6286571066986566 0.5907836493893872 0.0
6.367986849198743 0.6007834532690578 0.0
4.229395584652538 0.5981740439277844 0.0
5.795136344606714 0.5210327772009787 0.0
4.802475411929303 0.5334004281837157 0.0
5.298819810348673 0.5098839600559618 0.0
9.677455570317822 0.6881446116578834 0.0
0.322544272937421 0.7128630640631253 0.0
4.53052171624126 0.3516057830785099 0.0
3.9188171290864835 0.3699023515304199 0.0
6.06796754828563 0.3387136043947112 0.0
3.3194049579843203 0.3661092062153567 0.0
6.679660054344788 0.3823429544689326 0.0
7.878992292069625 0.3621691713223725 0.0
2.1209755821224237 0.3726606783579459 0.0
2.7201033967046664 0.38457322695856044 0.0
7.279720034821866 0.3658412799811316 0.0
9.037274066041883 0.6710158503705643 0.0
0.9627247360579902 0.6740427800031327 0.0
1.5320779635599446 0.3485340699850583 0.0
8.467915853540662 0.37212598949324416 0.0
8.45829999799877 0.6927056577710915 0.0
1.5416940554210385 0.6672654994739365 0.0
0.979395945207224 0.3657354295756275 0.0
9.020602720742268 0.36489038113586825 0.0
4.527196134828411 0.7048788053268141 0.0
3.9213971299252286 0.6978581863631566 0.0
6.069688426974607 0.6935094522901861 0.0
2.1183701562041533 0.6974263150660307 0.0
7.881600783505297 0.686365002071017 0.0
3.323354705722836 0.6928656676887923 0.0
6.6755611731572975 0.7134410322395895 0.0
2.7253644478518484 0.7152269566345193 0.0
7.27446836801582 0.6922641223250685 0.0
0.33283847494022456 0.31557786306104413 0.0
9.667161354413553 0.2916808807017678 0.0
5.581325089873506 0.30552868101890557 0.0
5.017218938217757 0.3202115564037081 0.0
5.5094582830918455 0.6775746455616593 0.0
5.087390798579324 0.6885783933726374 0.0
0.6618982961921205 0.7492469818729924 0.0
9.338101269473833 0.7218478922869627 0.0
8.747628686433677 0.7511352876720805 0.0
1.2523690066432498 0.7289361989061726 0.0
8.670392340172556 0.2892320154266662 0.0
1.3296046099874035 0.26294574807236876 0.0
0.680399575681585 0.25100887139146155 0.0
9.31959999521831 0.22282914119754238 0.0
8.169913542469965 0.7528666414123618 0.0
1.8300751547002965 0.7368831653364923 0.0
8.08224691796361 0.2819202887076473 0.0
1.9177374536597427 0.274327484615196 0.0
7.485185741366432 0.2698317803861672 0.0
2.5147296378582498 0.3012815139648005 0.0
6.885165390546317 0.2912691400587107 0.0
3.1143990298612905 0.28240596294822673 0.0
6.284938288447196 0.28248154094070616 0.0
3.7137838208363183 0.27423487535451074 0.0
2.422444809312553 0.8347737539400193 0.0
7.5775079309156625 0.7893277136902722 0.0
3.021600680901767 0.8137274332666653 0.0
6.978109602245879 0.8150073432593649 0.0
3.61845561155661 0.7923556940659737 0.0
6.379477460399864 0.8315129002161994 0.0
4.216881805801346 0.8241219147394179 0.0
5.793599393725187 0.8270507332581745 0.0
4.8025735134146075 0.8581488890094308 0.0
5.29957908610577 0.16458744762877148 0.0
4.313875136094671 0.28466126785680973 0.0
4.7432026088839185 0.25158593785708816 0.0
5.855726640781181 0.22628237128741693 0.0
5.298371719605594 0.7013823790127366 0.0
0.1948365086290046 0.5075808679208921 0.0
9.805163384164862 0.49668190019417835 0.0
9.486964290730548 0.13824152662080327 0.0
0.5130355197964759 0.1864371853579922 0.0
9.568927265802515 0.5033993604780873 0.0
0.4310724430367158 0.5210101756126322 0.0
9.509139689524929 0.811890335834609 0.0
0.490860135157196 0.8608068361268107 0.0
9.823685111610251 0.8152301998078617 0.0
0.1763148365695174 0.8402466433991256 0.0
7.690679306492968 0.1733873931096577 0.0
2.3092868593066163 0.212022843805578 0.0
8.876666393280653 0.20020027441270308 0.0
1.123332338260743 0.1834078015088571 0.0
7.090883749206921 0.1884392559696861 0.0
2.9089389176290688 0.20193053317686052 0.0
6.49107877307444 0.2126652977818023 0.0
3.508528476483373 0.17234403197767073 0.0
1.713317658790897 0.17007260584288542 0.0
8.286675997342012 0.20618399537852258 0.0
4.108119652437163 0.19799100368207823 0.0
8.577563478468381 0.851452701947371 0.0
1.4224338895269302 0.805697860055577 0.0
8.923335621859316 0.8315457671716951 0.0
1.0766633556932073 0.8210391207965316 0.0
0.841866058429533 0.8358429530059623 0.0
9.158133418829216 0.8139648511325291 0.0
8.345854091663437 0.8507273019566662 0.0
1.6541408811023235 0.8086850248098231 0.0
5.5924501662838715 0.4931936341814351 0.0
5.0052631291937075 0.5034296494184387 0.0
7.7894087709460855 0.82345073064614 0.0
2.210568786901978 0.855321146212751 0.0
7.776872166974075 0.545369291439148 0.0
2.2230808505518396 0.558554741086905 0.0
2.815272617034209 0.8590234324011446 0.0
7.184593843278014 0.8299804189432965 0.0
3.4120514582772277 0.8203835906369203 0.0
6.587037370022378 0.8669522771675291 0.0
4.0091992445869105 0.8429309612585231 0.0
5.9848336888491565 0.8422432332179072 0.0
4.611342817831078 0.8678519363876944 0.0
7.175172532377161 0.5544116254102791 0.0
2.8245592342049703 0.5657546601859066 0.0
6.575209022655384 0.5640478483001354 0.0
3.4230815394208562 0.5515037492284491 0.0
5.97803382219933 0.5299074679995615 0.0
4.022401943726623 0.5557868731587178 0.0
4.619571617177457 0.5406273782749985 0.0
8.549003739454074 0.5490722182793153 0.0
[...]
POINT_DATA 386
VECTORS vector double
1.0 0.0 0.0
0.0 0.0 0.0
0.0 0.0 0.0
0.0 0.0 0.0
0.0 0.0 0.0
1.0 0.0 0.0
0.0 0.0 0.0
0.0 0.0 0.0
0.0 0.0 0.0
0.0 0.0 0.0
0.0 0.0 0.0
0.0 0.0 0.0
0.0 0.0 0.0
0.0 0.0 0.0
0.0 0.0 0.0
0.0 0.0 0.0
0.0 0.0 0.0
0.0 0.0 0.0
0.0 0.0 0.0
0.0 0.0 0.0
0.0 0.0 0.0
0.0 0.0 0.0
0.0 0.0 0.0
0.0 0.0 0.0
0.0 0.0 0.0
0.0 0.0 0.0
0.0 0.0 0.0
0.0 0.0 0.0
0.0 0.0 0.0
0.0 0.0 0.0
0.0 0.0 0.0
0.0 0.0 0.0
0.0 0.0 0.0
0.0 0.0 0.0
0.0 0.0 0.0
0.0 0.0 0.0
0.0 0.0 0.0
0.0 0.0 0.0
0.0 0.0 0.0
0.0 0.0 0.0
0.0 0.0 0.0
0.0 0.0 0.0
0.0 0.0 0.0
0.0 0.0 0.0
0.0 0.0 0.0
0.0 0.0 0.0
0.0 0.0 0.0
0.0 0.0 0.0
0.0 0.0 0.0
0.0 0.0 0.0
0.0 0.0 0.0
0.0 0.0 0.0
0.0 0.0 0.0
0.0 0.0 0.0
0.897740097014 0.0966772988567 0.0
1.40540055359 -0.000557373076763 0.0
1.42104865579 -0.00707071421378 0.0
1.02065682654 -0.0824344305575 0.0
0.0 0.0 0.0
0.0 0.0 0.0
0.0 0.0 0.0
0.0 0.0 0.0
0.0 0.0 0.0
0.0 0.0 0.0
0.0 0.0 0.0
0.0 0.0 0.0
0.0 0.0 0.0
0.0 0.0 0.0
0.0 0.0 0.0
0.0 0.0 0.0
0.0 0.0 0.0
0.0 0.0 0.0
0.0 0.0 0.0
0.0 0.0 0.0
0.0 0.0 0.0
0.0 0.0 0.0
0.0 0.0 0.0
0.0 0.0 0.0
0.0 0.0 0.0
0.0 0.0 0.0
0.0 0.0 0.0
0.0 0.0 0.0
0.0 0.0 0.0
0.0 0.0 0.0
0.0 0.0 0.0
0.0 0.0 0.0
0.0 0.0 0.0
0.0 0.0 0.0
0.0 0.0 0.0
0.0 0.0 0.0
0.0 0.0 0.0
0.0 0.0 0.0
0.0 0.0 0.0
0.0 0.0 0.0
0.0 0.0 0.0
0.0 0.0 0.0
0.0 0.0 0.0
0.0 0.0 0.0
0.0 0.0 0.0
0.0 0.0 0.0
0.0 0.0 0.0
0.0 0.0 0.0
0.0 0.0 0.0
0.0 0.0 0.0
0.0 0.0 0.0
0.0 0.0 0.0
0.0 0.0 0.0
1.0 0.0 0.0
1.0 0.0 0.0
1.0 0.0 0.0
1.0 0.0 0.0
1.23932771568 -0.0561215650256 0.0
1.46852798218 -0.0397989021437 0.0
1.43928398619 -0.0180390933303 0.0
1.36089125999 -0.0339516197035 0.0
1.43913438949 0.033624520629 0.0
1.41408658487 0.0318240697424 0.0
1.3851564901 0.0181847535492 0.0
1.43563590129 0.000172696634575 0.0
1.40974156149 -0.0324991624794 0.0
1.41536033643 -0.0298548807833 0.0
1.43118634 0.00195609247968 0.0
1.40663040519 0.0191633043257 0.0
1.41061611521 0.0265068062808 0.0
1.46026683157 0.0259894652256 0.0
1.45958769795 -0.0247733913957 0.0
1.50407294216 -0.0218184021207 0.0
1.28997236858 0.00289890181372 0.0
1.10693099164 -0.0966115065251 0.0
1.34812654879 0.0113984542636 0.0
1.3595195268 0.0315693133672 0.0
1.30745021703 0.0282440970818 0.0
1.36383321618 -0.0227111267892 0.0
1.37256602823 -0.010611768262 0.0
1.35540101082 0.0297330891017 0.0
1.37314616831 0.0510239001343 0.0
1.39370737732 -0.0136874161747 0.0
1.34996671919 -0.031968105153 0.0
1.32851416416 -0.0499854588439 0.0
1.24708084667 -0.0690411954122 0.0
1.3476828738 0.0279549794351 0.0
1.372154405 0.0113252681474 0.0
1.29834063647 0.0118753185367 0.0
1.28836623584 0.00398520833394 0.0
1.34344996459 -0.0209555678093 0.0
1.36825494732 -0.0496675263178 0.0
1.23956861158 -0.00125910141439 0.0
1.2528872399 0.0337342911508 0.0
1.27398908387 0.0436885436087 0.0
1.24184849773 0.049024190467 0.0
1.29394003618 0.0272863195798 0.0
1.27469215212 -0.0248639358663 0.0
1.22394001324 -0.0132752558298 0.0
1.2056664 -0.015009330873 0.0
1.28051589393 -0.0339158517424 0.0
1.17255288634 0.101767256885 0.0
1.2680949105 -0.0173010412088 0.0
1.24160445971 0.00733776243546 0.0
1.27478766404 -0.0410641424462 0.0
1.29481994807 0.0269642709371 0.0
1.25491140331 -0.0590625441584 0.0
1.14045409449 -0.0861560568359 0.0
1.23225776986 -0.039032130094 0.0
1.15634802242 -0.0229247196693 0.0
1.17042493187 -0.0489549923158 0.0
1.21821697384 -0.0132196020073 0.0
1.19534945029 -0.00863571784127 0.0
1.23961292977 0.00109289182239 0.0
1.07804546086 -0.0392100233232 0.0
1.15233482505 0.0360299433488 0.0
1.16452199656 0.0341534782561 0.0
1.19052711842 0.0496717896283 0.0
1.21441610533 0.0367673257796 0.0
1.16105411803 0.00244096160401 0.0
1.25790283557 0.00710443841257 0.0
1.21517993641 -0.0282976289414 0.0
1.1919816735 -0.0462316539621 0.0
1.19684846558 0.0353298203346 0.0
1.18182866573 0.00200658659099 0.0
0.813204676811 0.0134948809337 0.0
1.07228502635 0.0127961471862 0.0
0.939773125722 -0.0546990196907 0.0
0.940095995299 -0.0541596192233 0.0
1.0533243523 0.0181846525918 0.0
0.837697066608 0.0213642848367 0.0
0.857247101114 0.0369237338032 0.0
0.911667092362 0.0475843563782 0.0
0.754624083679 -0.0352243039054 0.0
0.832170526219 -0.0267255002363 0.0
1.22307164867 0.0292362090594 0.0
1.05957702356 -0.043156374909 0.0
0.941861285778 0.0417645701802 0.0
1.20528961028 -0.0278869970853 0.0
1.01694590574 0.00897137213269 0.0
1.47498736747 -0.0106238374407 0.0
0.739089397251 -0.0107965754656 0.0
1.21105803632 0.0541837713155 0.0
1.48334567856 -0.024046783191 0.0
1.13754454553 -0.0203392720961 0.0
0.934768968694 -0.0141010638107 0.0
0.919231993087 -0.0783566571488 0.0
0.825022676272 -0.0479562631023 0.0
1.07615236603 -0.101038498853 0.0
0.851399099302 0.0120969287618 0.0
1.06656482851 0.0554551420892 0.0
0.956515068013 -0.0580934917037 0.0
0.995350434492 -0.0251681064507 0.0
0.896992471808 -0.0561644861944 0.0
0.977586873837 -0.0379475068449 0.0
1.0504088387 -0.000700323458232 0.0
0.840006560787 0.00213051478561 0.0
0.893183252002 0.0432472594465 0.0
1.02249301218 0.0324300457736 0.0
0.979848750954 0.0641669851785 0.0
0.74715602203 -0.00958171688663 0.0
0.984521951234 -0.0137122621057 0.0
0.8508566101 -0.04008705541 0.0
0.91900820005 -0.0860071240834 0.0
0.883546118245 -0.0698464925625 0.0
0.931164013619 -0.0693280351993 0.0
0.744065494626 0.0331954987631 0.0
0.961306723043 0.0116411355932 0.0
1.46449290689 -0.00622278559556 0.0
1.46991810061 -0.0218766770836 0.0
0.902431154832 0.0346289556865 0.0
0.715955058403 0.0372445630318 0.0
1.49061934114 0.020997038998 0.0
1.45760059939 0.0327852653239 0.0
0.741220156228 -0.0360222626568 0.0
0.900020414289 -0.0493905862461 0.0
0.953351149664 -0.0235232335236 0.0
0.69917166504 -0.00130093286767 0.0
0.788306785232 0.0430612724686 0.0
0.830151895396 0.0529333275114 0.0
0.710794143317 -0.0160783276072 0.0
1.48556399479 -0.0320855795478 0.0
1.46820756694 -0.0323897485508 0.0
1.46962457933 0.0130090099117 0.0
1.49210480397 -0.0193916764696 0.0
1.47270687338 0.0359919984843 0.0
1.47968272099 0.0250081622693 0.0
1.47590555143 -0.00943519910699 0.0
1.47467909055 -0.00174000666917 0.0
1.41911823802 0.00135182444297 0.0
1.35221487848 -0.0449929167692 0.0
1.31795556838 -0.0497135704357 0.0
1.4864546284 -0.0377925129295 0.0
1.4838910704 -0.0536031406463 0.0
1.46143142553 0.0188387394784 0.0
1.44827798444 0.0223218847249 0.0
1.49013538429 0.0228318917828 0.0
1.45028317712 0.0493925060946 0.0
1.47391468468 0.0278648998935 0.0
1.46784019109 0.0304621656484 0.0
1.45410981732 0.0316186006733 0.0
1.46614919674 -0.0205337127036 0.0
1.45473443249 -0.0316242687135 0.0
1.44270862819 0.0136241843548 0.0
1.47249973892 -0.0293478768438 0.0
0.690140007146 0.00974209453284 0.0
0.876514830032 0.0461742193737 0.0
0.743024556026 0.0392994425702 0.0
0.822179984032 0.0671647744943 0.0
0.840739436666 0.0328585808141 0.0
0.900038908032 -0.0453532275794 0.0
0.743898509189 -0.0323944965965 0.0
0.687974694932 -0.00580625328535 0.0
0.958827453604 -0.0304747045071 0.0
0.935839251655 -0.00946177637572 0.0
0.802304188698 -0.0326753059132 0.0
1.1929175247 0.259693502224 0.0
0.827917711721 0.013772059282 0.0
0.851958618197 -0.0391382576107 0.0
1.08292860649 -0.0555097451651 0.0
1.35957680572 -0.0377665942272 0.0
1.18577823207 -0.103642914398 0.0
0.775041154222 0.00390533641878 0.0
0.953355331688 0.0116806190793 0.0
0.800291107964 0.0520413043531 0.0
0.906737355781 0.0533630602823 0.0
0.839277597092 0.0786056222285 0.0
0.923206325699 -0.00381276553394 0.0
0.734905502823 -0.0177867775305 0.0
0.956565928154 -0.0354161407323 0.0
0.930183789411 -0.0242646729508 0.0
0.743101981039 -0.0346523075844 0.0
1.4076481841 -0.0250917969575 0.0
1.35740677473 -0.0094360589844 0.0
0.80743354478 0.0346534188143 0.0
1.4156813695 0.0351087253271 0.0
1.39230633594 0.0319538167317 0.0
0.84193365035 -0.0508074502425 0.0
0.941532691623 0.0540394543976 0.0
1.44141902924 0.0259366958245 0.0
1.39966963748 0.0118109792951 0.0
0.968158895408 0.0140594449174 0.0
0.769098527901 -0.00192820379662 0.0
1.42876732073 -0.031344893073 0.0
1.41548339358 -0.0274502013424 0.0
1.4260156371 0.0247371099641 0.0
1.40865410484 -0.0105999293656 0.0
0.829808146044 -0.0367375667831 0.0
1.42652782902 0.0236797050365 0.0
1.33363915433 0.0488949546076 0.0
1.37001981108 -0.0548600420619 0.0
1.27783646699 0.00601621953674 0.0
1.28155622153 -0.0317749676599 0.0
1.25716397412 -0.0169332689362 0.0
1.26690079767 0.0441816630186 0.0
1.29678939531 0.034001931383 0.0
1.29323892923 0.00989839672967 0.0
1.23118251812 0.0397509815483 0.0
1.25271584276 0.00318724316326 0.0
1.29369108466 -0.0050604268973 0.0
1.23803751411 -0.0264887565172 0.0
1.28788978669 -0.046835261945 0.0
1.2981209676 -0.0373747667191 0.0
1.25265688695 -0.0474638553605 0.0
1.25362832764 0.0173975768268 0.0
1.27225403078 0.0267411569836 0.0
1.29679894909 0.0386191623872 0.0
1.29257866732 0.0244356260373 0.0
1.28001319317 0.0187758691732 0.0
1.21791745327 -0.0801626287523 0.0
1.34197230073 -0.0319137993272 0.0
1.27736130866 0.015456542728 0.0
1.27818062287 0.038149970694 0.0
1.27873643971 -0.044978290532 0.0
1.25164836232 -0.0237290806871 0.0
1.26525853783 0.0369946433833 0.0
1.34241664841 -0.0251953170996 0.0
1.22260147421 -0.00313684578004 0.0
1.29999453115 -0.0122557858769 0.0
1.33768740847 -0.0243464255647 0.0
1.34897079754 -0.0196039902781 0.0
1.00439311719 -0.138682449241 0.0
1.33197483436 0.00888979975267 0.0
1.29378796549 -0.0194106099674 0.0
1.48470855107 -0.0368289350168 0.0
1.48881825993 -0.00656365924364 0.0
1.30304132744 -0.000598429445397 0.0
1.0458059843 0.105497193888 0.0
0.627562095517 -0.00493682192667 0.0
1.23641742987 0.173955398058 0.0
1.03521453631 -0.0675573170483 0.0
1.30824681745 -0.00193622913333 0.0
1.35253636377 -0.0350751453865 0.0
1.29799245647 -0.00281348371201 0.0
1.46123658901 -0.016982484255 0.0
1.38820024963 0.0190071040694 0.0
0.807133042587 0.130835326392 0.0
0.787054067729 0.0580890949724 0.0
0.991021865102 -0.0964493663672 0.0
0.952924846651 -0.100581066184 0.0
1.45338150704 0.0225469906443 0.0
1.43252978109 0.0562948087437 0.0
0.773420381227 0.058548219374 0.0
0.576116932869 0.0217997473762 0.0
0.774997271645 0.0194587410502 0.0
1.47715117478 0.0238564439371 0.0
1.44656217775 -0.0269925182524 0.0
1.44929407758 -0.0248030931074 0.0
1.41761948103 0.0390424483077 0.0
1.46273531659 -0.0167345916034 0.0
1.46323012717 -0.0373247162182 0.0
1.45226634597 0.0255285892946 0.0
1.46363557173 0.0301028906866 0.0
0.624410037894 -0.0259930322052 0.0
0.697044787148 -0.0515439444017 0.0
1.47319458412 0.0271092170709 0.0
0.843990609399 0.0148333189107 0.0
0.546331868607 -0.0136220941558 0.0
0.666200792314 0.052376310621 0.0
0.717484220871 0.0423632447751 0.0
0.6803186458 -0.0434814613774 0.0
0.784662019507 -0.0537257795025 0.0
0.582648500401 -0.0185913761581 0.0
0.794435163564 -0.0581527120193 0.0
0.657970644495 0.0168515341702 0.0
0.777657741982 -0.0466348069468 0.0
0.569962940331 0.0371549223489 0.0
0.714440330666 0.035690989588 0.0
0.518492811818 0.0677383101368 0.0
1.07802244078 0.0617141212722 0.0
0.937661866143 -0.0427240086843 0.0
0.50407334923 0.00575086808015 0.0

SCALARS scalar1 double
LOOKUP_TABLE default
4.24014501908
7.41382052101
3.9585160531
4.6482564683
-5.91508637132
-2.35622903224
8.20532374022
7.11176503669
5.22360361619
5.09729657374
5.77586022806
7.10282608841
8.28649299709
7.72399231639
6.16872887818
4.64263814276
3.97721143192
3.89577377805
4.11912951252
5.23880202795
6.43521174774
7.90156826604
8.03115866061
7.28316821048
5.97991609684
4.75860821064
3.99059427639
3.81173762354
4.3859647791
5.02310178998
7.57979649719
5.83275889254
9.92390554725
7.56827386346
6.63897137551
5.03000616515
4.11576026493
3.94581743813
4.05481447622
5.05565365558
6.25299979562
7.73403912956
8.05507182213
7.39411431377
6.12822011182
4.93509621218
3.73428102527
3.95396062149
4.6934278858
5.75341600428
7.31974300474
8.01052857096
8.34396212857
6.58684031301
3.6599652034
1.31899478496
-0.990264479629
-3.15974876395
-4.80000610945
-4.30260554738
-3.65144253374
-3.91502285411
-5.42647616597
-6.57535697432
-8.48613806817
-7.75742354229
-6.92050080055
-5.93357308408
-4.718624113
-3.79512403996
-3.87145094943
-4.55908681218
-5.20278783293
-6.94662159214
-7.67750904076
-7.85821080249
-7.59000271213
-7.54022583622
-3.87932586887
-4.18221410576
-4.15571293045
-4.63392752995
-5.55210375663
-5.82716994133
-9.83731579881
-8.3904672999
-6.84970990586
-5.79315876131
-4.55340377976
-3.8075211558
-4.10144124125
-4.4452122663
-5.26754678402
-6.78433739169
-8.46005542425
-7.92062432746
-7.16853192117
-6.12016341145
-4.75628573694
-4.56140604601
-4.66330170104
-4.96033574127
-6.62211564705
-8.37664333081
-10.7708269875
-13.3109464472
-13.6216222134
3.46891898204
0.0779237475201
-0.0375027014191
-1.81569005168
0.0658270013127
0.47378661694
0.723095821879
0.626758207824
0.780056130441
0.811607728491
1.13913597363
0.970349957068
1.10981955394
1.01172637266
1.0559035189
0.938430430329
1.04449196701
0.196292719036
0.307265015663
0.122315848548
2.32058392576
-0.654272350888
-1.78228918348
-1.46882638615
-1.77493319161
-1.55206597563
-1.49075998576
-1.56855801189
-1.28229025141
-1.39930311318
-1.5767515548
1.85769950094
1.12265693689
-1.13316127505
-1.5866992543
2.10101105989
1.72921870776
-0.206463573118
-1.64476949122
2.23107901984
2.36439812448
2.1177562164
2.19843285499
2.22527090761
2.16001182597
2.24318143135
2.2738481835
2.12351088955
1.08161403765
-2.24834224901
-2.13380827127
-2.07301177353
1.88518310717
2.06809907011
1.49809452315
2.52664259575
2.73811338291
2.118670626
-2.56334648672
-2.14568336631
-1.59907220021
-3.15275759057
2.9455869496
2.61997419157
-2.47139928401
-2.34324496555
-2.57587955158
-2.28185789725
-2.5396171474
-2.5881561164
-2.45944281983
-2.5072320711
3.76446813845
3.33132763646
3.47158114212
3.52409127844
3.36723381994
3.86044584678
3.79086578096
3.78732356978
3.99077297404
-3.75640255063
-2.45426733175
-2.9095743006
-2.96087152695
2.16100692724
0.013091830758
0.053450262827
-4.00818219806
-2.71551049985
0.112346893387
-0.0101990391942
3.73784694045
3.48358940084
3.89812575768
-0.00535242809434
-3.60192568081
-3.28626577266
-3.55020489799
-3.31490090165
-3.61781333864
-3.56932724266
-3.30978955849
-3.76176968726
-3.75119444145
-3.3617426223
-3.37676950637
3.93927934858
3.3564252632
3.65223833782
3.25931303539
3.31528500321
3.54278646908
3.99627423206
3.40997998882
-0.0549669455665
-0.00587283888314
3.84600661146
3.9216587712
0.493750306544
0.62589128125
3.92313728313
3.81752345716
3.75658201504
4.00628827323
3.98851305843
4.03703185607
4.04865178586
0.533460998115
0.689774173368
0.508053459916
0.601354645005
0.21897662784
0.57688425012
0.349303164076
0.422863717477
0.493588708394
0.335733470314
0.219328904928
0.300645340788
0.223302823675
0.508009157759
0.445280509645
0.370982422338
0.587157943235
0.475742810714
0.657689701926
0.390529639916
0.678037499816
0.616116293807
0.7321362886
0.59283233691
3.98356506791
3.91221199504
4.1217613748
3.79284490283
3.91759044267
3.79996776144
3.99328017408
3.92611144793
3.76133420708
-3.59121585411
-3.65786511809
0.160485145873
-3.90857791706
-3.78388356712
-3.07345882477
1.87149583987
-0.249744721951
-4.18153059004
-3.83088509743
-3.82477796052
-3.79792136696
-3.89585000391
-3.9411924692
-3.95914132954
-3.81040382677
-3.80055225643
-4.03691542573
-1.31195998133
-0.258585894708
-3.80442029732
-1.20954702346
-0.846526611357
-3.69871996559
3.76927517757
-0.910595183679
-1.17039905992
3.76346156311
-3.82461239338
-1.05291061157
-1.1694017246
-1.13611018266
-1.11555685494
3.91852585735
-1.11427125671
-1.64271222376
-1.58485865043
1.93105971555
1.59280922103
2.11263051651
2.4104812938
2.02599150489
2.14210950114
2.28925884289
2.34485871271
2.18222146047
2.21393867984
2.17638008741
1.83325892912
1.19735897893
2.35766707349
2.01273900226
2.11153833521
1.76541654613
2.02842834098
0.901728599677
1.72565976893
2.24522205084
2.20344877082
2.21642793435
2.19905981533
0.430676635955
-1.74062519898
2.40013888786
2.14097460211
-1.48973579892
-1.48773082532
4.09372619203
1.89154890889
2.00061595915
0.622658923468
0.568754897935
-2.01072291338
1.41871829108
-4.29915072909
-3.76838629566
-1.15297021937
2.32687141324
-1.61630514642
0.101921547916
-0.898346958565
-0.188814665138
-3.82884116162
4.4460719313
3.50068472138
-4.1196834257
-0.806387511595
-0.534445734052
-4.44652708403
-4.07320876606
-4.27567107726
-0.55927392721
-0.731263671245
-1.17555100114
-1.20501589684
-0.661253120316
-0.724279784168
-0.686274763768
-0.834262660354
-4.27703524213
-4.29076716373
-0.82162703986
-4.49756635497
-4.16158681128
-4.26358717654
-4.23904496516
4.22147771815
4.51262059827
4.1873228478
4.31265492449
-4.35132526427
-4.4015362881
4.39282418723
4.43913997187
4.79927352131
1.69791512901
-4.73111557685
-4.14157999547

SCALARS scalar2 double
LOOKUP_TABLE default
4.24014501908
7.41382052101
3.9585160531
4.6482564683
-5.91508637132
-2.35622903224
8.20532374022
7.11176503669
5.22360361619
5.09729657374
5.77586022806
7.10282608841
8.28649299709
7.72399231639
6.16872887818
4.64263814276
3.97721143192
3.89577377805
4.11912951252
5.23880202795
6.43521174774
7.90156826604
8.03115866061
7.28316821048
5.97991609684
4.75860821064
3.99059427639
3.81173762354
4.3859647791
5.02310178998
7.57979649719
5.83275889254
9.92390554725
7.56827386346
6.63897137551
5.03000616515
4.11576026493
3.94581743813
4.05481447622
5.05565365558
6.25299979562
7.73403912956
8.05507182213
7.39411431377
6.12822011182
4.93509621218
3.73428102527
3.95396062149
4.6934278858
5.75341600428
7.31974300474
8.01052857096
8.34396212857
6.58684031301
3.6599652034
1.31899478496
-0.990264479629
-3.15974876395
-4.80000610945
-4.30260554738
-3.65144253374
-3.91502285411
-5.42647616597
-6.57535697432
-8.48613806817
-7.75742354229
-6.92050080055
-5.93357308408
-4.718624113
-3.79512403996
-3.87145094943
-4.55908681218
-5.20278783293
-6.94662159214
-7.67750904076
-7.85821080249
-7.59000271213
-7.54022583622
-3.87932586887
-4.18221410576
-4.15571293045
-4.63392752995
-5.55210375663
-5.82716994133
-9.83731579881
-8.3904672999
-6.84970990586
-5.79315876131
-4.55340377976
-3.8075211558
-4.10144124125
-4.4452122663
-5.26754678402
-6.78433739169
-8.46005542425
-7.92062432746
-7.16853192117
-6.12016341145
-4.75628573694
-4.56140604601
-4.66330170104
-4.96033574127
-6.62211564705
-8.37664333081
-10.7708269875
-13.3109464472
-13.6216222134
3.46891898204
0.0779237475201
-0.0375027014191
-1.81569005168
0.0658270013127
0.47378661694
0.723095821879
0.626758207824
0.780056130441
0.811607728491
1.13913597363
0.970349957068
1.10981955394
1.01172637266
1.0559035189
0.938430430329
1.04449196701
0.196292719036
0.307265015663
0.122315848548
2.32058392576
-0.654272350888
-1.78228918348
-1.46882638615
-1.77493319161
-1.55206597563
-1.49075998576
-1.56855801189
-1.28229025141
-1.39930311318
-1.5767515548
1.85769950094
1.12265693689
-1.13316127505
-1.5866992543
2.10101105989
1.72921870776
-0.206463573118
-1.64476949122
2.23107901984
2.36439812448
2.1177562164
2.19843285499
2.22527090761
2.16001182597
2.24318143135
2.2738481835
2.12351088955
1.08161403765
-2.24834224901
-2.13380827127
-2.07301177353
1.88518310717
2.06809907011
1.49809452315
2.52664259575
2.73811338291
2.118670626
-2.56334648672
-2.14568336631
-1.59907220021
-3.15275759057
2.9455869496
2.61997419157
-2.47139928401
-2.34324496555
-2.57587955158
-2.28185789725
-2.5396171474
-2.5881561164
-2.45944281983
-2.5072320711
3.76446813845
3.33132763646
3.47158114212
3.52409127844
3.36723381994
3.86044584678
3.79086578096
3.78732356978
3.99077297404
-3.75640255063
-2.45426733175
-2.9095743006
-2.96087152695
2.16100692724
0.013091830758
0.053450262827
-4.00818219806
-2.71551049985
0.112346893387
-0.0101990391942
3.73784694045
3.48358940084
3.89812575768
-0.00535242809434
-3.60192568081
-3.28626577266
-3.55020489799
-3.31490090165
-3.61781333864
-3.56932724266
-3.30978955849
-3.76176968726
-3.75119444145
-3.3617426223
-3.37676950637
3.93927934858
3.3564252632
3.65223833782
3.25931303539
3.31528500321
3.54278646908
3.99627423206
3.40997998882
-0.0549669455665
-0.00587283888314
3.84600661146