# vtk DataFile Version 2.0
2D Simulation Python
ASCII
DATASET UNSTRUCTURED_GRID
FIELD FieldData 1
NODES 1 2 int
386 659

POINTS 386 double
0.0 1.0 0.0
1.725 0.9846879351234538 0.0
8.275 1.0153120648765455 0.0
10.0 1.0 0.0
10.0 -2.466034209055846e-17 0.0
0.0 0.0 0.0
0.1916666666663293 1.0114055510327509 0.0
0.3833333333324708 1.018799226603522 0.0
0.574999999998553 1.0195803189068846 0.0
0.7666666666645966 1.0134740805819924 0.0
0.9583333333312576 1.0026283664435536 0.0
1.149999999998384 0.9908581306568369 0.0
1.341666666665662 0.9823035256791322 0.0
1.533333333332819 0.9799736134749925 0.0
1.92348484848444 0.995206032840611 0.0
2.121969696968978 1.007528525433582 0.0
2.320454545453434 1.0170173664258786 0.0
2.518939393937826 1.0201010636702688 0.0
2.717424242422235 1.0156189484927054 0.0
2.915909090906411 1.0052580382194136 0.0
3.1143939393908 0.9929180619858178 0.0
3.312878787875129 0.9832436469124759 0.0
3.511363636359531 0.9798761331263364 0.0
3.709848484843827 0.9840830146293171 0.0
3.90833333332816 0.9942808689292063 0.0
4.106818181812215 1.006631339309897 0.0
4.305303030296804 1.0164858487729225 0.0
4.503787878781365 1.020135271705264 0.0
4.702272727265711 1.0162060066991887 0.0
4.900757575750005 1.0061769845456257 0.0
5.099242424235156 0.9938230154552676 0.0
5.297727272720327 0.9837939933013332 0.0
5.496212121205663 0.9798647282947466 0.0
5.694696969690998 0.9835141512266323 0.0
5.89318181817668 0.9933686606894404 0.0
6.09166666666213 1.0057191310702038 0.0
6.290151515147423 1.0159169853703427 0.0
6.488636363633031 1.020123866873648 0.0
6.687121212118713 1.0167563530877395 0.0
6.885606060604342 1.0070819380144698 0.0
7.084090909089381 0.9947419617808443 0.0
7.282575757574369 0.9843810515074309 0.0
7.481060606059355 0.9798989363297411 0.0
7.679545454544343 0.9829826335740438 0.0
7.878030303029329 0.9924714745663176 0.0
8.076515151514705 1.0047939671593362 0.0
8.46666666666447 1.0200263865249886 0.0
8.658333333329285 1.0176964743210195 0.0
8.84999999999549 1.0091418693435095 0.0
9.041666666661694 0.9973716335568887 0.0
9.233333333327899 0.9865259194183598 0.0
9.42499999999549 0.9804196810932021 0.0
9.616666666663775 0.9812007733963943 0.0
9.808333333331985 0.9885944489671609 0.0
10.0 0.7999999999999998 0.0
10.0 0.6000000000013869 0.0
10.0 0.4000000000016644 0.0
10.0 0.2000000000008322 0.0
9.799999999999999 -0.01183605379723334 0.0
9.6 -0.019151137336595674 0.0
9.399999999999999 -0.019151137336595646 0.0
9.2 -0.011836053797233202 0.0
8.999999999999998 1.6527414890999353e-16 0.0
8.799999999999997 0.011836053797233454 0.0
8.599999999999998 0.01915113733659575 0.0
8.399999999999997 0.01915113733659561 0.0
8.199999999999998 0.011836053797233171 0.0
7.999999999999997 -1.6280811470093758e-16 0.0
7.799999999999997 -0.011836053797233454 0.0
7.599999999999998 -0.01915113733659575 0.0
7.399999999999997 -0.01915113733659561 0.0
7.199999999999998 -0.011836053797233202 0.0
6.999999999999997 1.6034208049188167e-16 0.0
6.799999999999997 0.011836053797233452 0.0
6.599999999999998 0.01915113733659575 0.0
6.399999999999997 0.019151137336595587 0.0
6.199999999999998 0.011836053797233192 0.0
5.999999999999997 -1.5787604628282597e-16 0.0
5.799999999999998 -0.011836053797233405 0.0
5.599999999999998 -0.01915113733659575 0.0
5.399999999999999 -0.019151137336595667 0.0
5.199999999999998 -0.011836053797233192 0.0
4.999999999999999 8.387009155952479e-17 0.0
4.799999999999999 0.01183605379723331 0.0
4.599999999999999 0.019151137336595743 0.0
4.399999999999999 0.019151137336595653 0.0
4.199999999999999 0.011836053797233216 0.0
3.999999999999999 -8.140405735046879e-17 0.0
3.799999999999999 -0.011836053797233322 0.0
3.599999999999999 -0.0191511373365957 0.0
3.399999999999998 -0.019151137336595653 0.0
3.199999999999998 -0.01183605379723314 0.0
2.999999999999999 7.893802314141298e-17 0.0
2.799999999999998 0.011836053797233369 0.0
2.599999999999998 0.019151137336595757 0.0
2.399999999999999 0.019151137336595674 0.0
2.199999999999999 0.011836053797233202 0.0
1.999999999999998 -1.3012692931804115e-16 0.0
1.799999999999999 -0.011836053797233344 0.0
1.6 -0.019151137336595687 0.0
1.4 -0.019151137336595687 0.0
1.199999999999999 -0.01183605379723319 0.0
0.9999999999999982 1.1871840504470475e-16 0.0
0.7999999999999989 0.011836053797233344 0.0
0.6000000000000014 0.019151137336595642 0.0
0.3999999999999986 0.019151137336595642 0.0
0.1999999999999993 0.01183605379723323 0.0
0.0 0.1999999999995579 0.0
0.0 0.3999999999989749 0.0
0.0 0.5999999999989468 0.0
0.0 0.7999999999994734 0.0
0.6588466721821732 0.5560404867976815 0.0
9.341152799454942 0.5358978577949671 0.0
8.741432843886262 0.5755595631845959 0.0
1.258564198054092 0.5593640389401524 0.0
8.162841450084029 0.578183668515206 0.0
1.8371433498610061 0.5674232843426795 0.0
2.4304413608119457 0.6105562702149034 0.0
7.569477443380789 0.5850535034767025 0.0
3.030492246447679 0.6012252373104434 0.0
6.969026184835268 0.6012229821112638 0.0
3.6286638988561295 0.5891172141343102 0.0
6.367982669865082 0.6024179480279573 0.0
4.229400771731455 0.5994904529329741 0.0
5.7951342356337125 0.5191033212022333 0.0
4.802478518888333 0.5348566943407239 0.0
5.298820266747824 0.5077354333511606 0.0
9.677454509475488 0.6877426077309939 0.0
0.32254534915276467 0.7132712716171007 0.0
4.530525394783065 0.352360686423258 0.0
3.9188227626478733 0.3693627857012331 0.0
6.0679647371867595 0.3394213814109069 0.0
3.319411585773322 0.3655553666135152 0.0
6.679655353683725 0.3829114164282072 0.0
7.878986044458152 0.3620757464670483 0.0
2.120982398974987 0.3727873438278121 0.0
2.7201102949163456 0.3854986638351464 0.0
7.279714263249552 0.3649473617353677 0.0
9.037270241723327 0.6709232966362373 0.0
0.9627286494997938 0.6741570769178267 0.0
1.5320838479112864 0.34787154466452413 0.0
8.467910220514492 0.37281939385925583 0.0
8.458294142764688 0.6934386775503354 0.0
1.541700168317114 0.6665645499867604 0.0
0.9793998675555189 0.3659709898964984 0.0
9.020598892078421 0.3646765423929347 0.0
4.527199775139404 0.7055184029630391 0.0
3.921402597124963 0.6977441164190697 0.0
6.069685660350945 0.6934406535405131 0.0
2.118377000236796 0.69770701667831 0.0
7.881594499750787 0.6861176831453925 0.0
3.3233611531441043 0.6922491217697176 0.0
6.67555661793272 0.7140862729578203 0.0
2.7253711643059897 0.7157584682361002 0.0
7.2744627555989485 0.691762975746098 0.0
0.3328395781186629 0.3158677561248885 0.0
9.667160267573125 0.2913973316305044 0.0
5.581324219994653 0.3048540815120156 0.0
5.0172206073947985 0.3199074047167675 0.0
5.509457727605196 0.6771547608549774 0.0
5.087392122020441 0.688730763687904 0.0
0.6619005094043595 0.7492242353783898 0.0
9.338099094700166 0.7218832111324462 0.0
8.747624310926945 0.7509762913629405 0.0
1.252373519275903 0.7291196256414982 0.0
8.670387985263552 0.2888841943267497 0.0
1.3296091197974136 0.26331774142139647 0.0
0.6804015937645673 0.2506521294010058 0.0
9.319598013559643 0.22319732037376955 0.0
8.169907996888796 0.7526823026584931 0.0
1.8300810440259396 0.7370973476391209 0.0
8.082241617208194 0.2816579296289967 0.0
1.917743131788189 0.2746182679478576 0.0
7.485180592121558 0.2702156433507047 0.0
2.5147355678641095 0.3009251214951946 0.0
6.885160963513612 0.29119177240635497 0.0
3.1144048681948373 0.2825069848721163 0.0
6.284935231340035 0.28212834507929385 0.0
3.7137890439716257 0.274568895082099 0.0
2.422449309134023 0.8282828735551366 0.0
7.577503963945735 0.7958395504973642 0.0
3.021605110984491 0.8140285851294995 0.0
6.97810616043555 0.8147271470502652 0.0
3.6184596493078853 0.7986848254028006 0.0
6.379474968961856 0.8251778801740233 0.0
4.216884897075269 0.8201156361810292 0.0
5.793598400131238 0.8318576674484018 0.0
4.802574982300711 0.8533356148790812 0.0
5.29957932420902 0.1710343950105432 0.0
4.313878968233538 0.2844882564220676 0.0
4.743204933913844 0.24928526466768774 0.0
5.855724986018845 0.22896769817899942 0.0
5.298372066438494 0.7033670607707944 0.0
0.19483726776524865 0.5090704884845989 0.0
9.8051626356337 0.49519666282680097 0.0
9.486963243157573 0.14525547448130482 0.0
0.5130365845926498 0.17942932208552 0.0
9.568925521160724 0.5008723979949888 0.0
0.43107421503239496 0.5235472963668328 0.0
9.50913863593306 0.8188649408338092 0.0
0.4908612052965329 0.8538383638334937 0.0
9.823684716680967 0.8178663608198176 0.0
0.17631523677736413 0.8376128022235262 0.0
7.690675621639772 0.1790858213147562 0.0
2.309290976063749 0.20634397147683742 0.0
8.87666373525489 0.19802093076922347 0.0
1.1233350733186507 0.18560207945634777 0.0
7.090880438805386 0.190597808322394 0.0
2.908943048062563 0.1997905779893236 0.0
6.491076251556247 0.20560664743742876 0.0
3.5085323267075363 0.17939305820968737 0.0
1.7133214029639716 0.17587171788402758 0.0
8.286672452413619 0.2004040991541979 0.0
4.108122729067568 0.19585116803039132 0.0
8.577560101803872 0.8446404453171019 0.0
1.4224373956553245 0.8125287568971314 0.0
8.923332976648522 0.8303576992641372 0.0
1.076666070607689 0.822242115083177 0.0
0.8418681022801877 0.8329909421000276 0.0
9.158131416716214 0.8168283241898632 0.0
8.345850371693865 0.8443399961008806 0.0
1.6541447900851682 0.8150925489053695 0.0
5.592449090365017 0.4904081059435522 0.0
5.005265140555801 0.5032126853221262 0.0
7.789405108092792 0.8286123728050722 0.0
2.210572817839848 0.8501789075568585 0.0
7.776865076957851 0.5437125890704474 0.0
2.2230886734505195 0.5602490170432308 0.0
2.815276574434883 0.8546575444406089 0.0
7.184590602248632 0.834364255505406 0.0
3.412055205341155 0.8280832057885085 0.0
6.587034817281824 0.8592686227277861 0.0
4.009202335060528 0.8427756697044382 0.0
5.9848322839298636 0.8423358350768267 0.0
4.611344717678064 0.8600904955160169 0.0
7.175166163317662 0.5530470122961719 0.0
2.8245670238953697 0.5671547364028784 0.0
6.5752040159265155 0.5665087795619356 0.0
3.423088906985226 0.5490564075925171 0.0
5.978030920087572 0.5295657192424182 0.0
4.0224080064827366 0.555926192249835 0.0
4.619575537839731 0.5430948533165663 0.0
8.548997314153379 0.551508276296361 0.0
[...]
POINT_DATA 386
VECTORS vector double
1.0 0.0 0.0
0.0 0.0 0.0
0.0 0.0 0.0
0.0 0.0 0.0
0.0 0.0 0.0
1.0 0.0 0.0
0.0 0.0 0.0
0.0 0.0 0.0
0.0 0.0 0.0
0.0 0.0 0.0
0.0 0.0 0.0
0.0 0.0 0.0
0.0 0.0 0.0
0.0 0.0 0.0
0.0 0.0 0.0
0.0 0.0 0.0
0.0 0.0 0.0
0.0 0.0 0.0
0.0 0.0 0.0
0.0 0.0 0.0
0.0 0.0 0.0
0.0 0.0 0.0
0.0 0.0 0.0
0.0 0.0 0.0
0.0 0.0 0.0
0.0 0.0 0.0
0.0 0.0 0.0
0.0 0.0 0.0
0.0 0.0 0.0
0.0 0.0 0.0
0.0 0.0 0.0
0.0 0.0 0.0
0.0 0.0 0.0
0.0 0.0 0.0
0.0 0.0 0.0
0.0 0.0 0.0
0.0 0.0 0.0
0.0 0.0 0.0
0.0 0.0 0.0
0.0 0.0 0.0
0.0 0.0 0.0
0.0 0.0 0.0
0.0 0.0 0.0
0.0 0.0 0.0
0.0 0.0 0.0
0.0 0.0 0.0
0.0 0.0 0.0
0.0 0.0 0.0
0.0 0.0 0.0
0.0 0.0 0.0
0.0 0.0 0.0
0.0 0.0 0.0
0.0 0.0 0.0
0.0 0.0 0.0
0.897884737027 0.100716650959 0.0
1.3997230868 0.000721981670017 0.0
1.4249809102 -0.00695767429595 0.0
1.01563356924 -0.0818611042434 0.0
0.0 0.0 0.0
0.0 0.0 0.0
0.0 0.0 0.0
0.0 0.0 0.0
0.0 0.0 0.0
0.0 0.0 0.0
0.0 0.0 0.0
0.0 0.0 0.0
0.0 0.0 0.0
0.0 0.0 0.0
0.0 0.0 0.0
0.0 0.0 0.0
0.0 0.0 0.0
0.0 0.0 0.0
0.0 0.0 0.0
0.0 0.0 0.0
0.0 0.0 0.0
0.0 0.0 0.0
0.0 0.0 0.0
0.0 0.0 0.0
0.0 0.0 0.0
0.0 0.0 0.0
0.0 0.0 0.0
0.0 0.0 0.0
0.0 0.0 0.0
0.0 0.0 0.0
0.0 0.0 0.0
0.0 0.0 0.0
0.0 0.0 0.0
0.0 0.0 0.0
0.0 0.0 0.0
0.0 0.0 0.0
0.0 0.0 0.0
0.0 0.0 0.0
0.0 0.0 0.0
0.0 0.0 0.0
0.0 0.0 0.0
0.0 0.0 0.0
0.0 0.0 0.0
0.0 0.0 0.0
0.0 0.0 0.0
0.0 0.0 0.0
0.0 0.0 0.0
0.0 0.0 0.0
0.0 0.0 0.0
0.0 0.0 0.0
0.0 0.0 0.0
0.0 0.0 0.0
0.0 0.0 0.0
1.0 0.0 0.0
1.0 0.0 0.0
1.0 0.0 0.0
1.0 0.0 0.0
1.23831736949 -0.0518814865033 0.0
1.46490675103 -0.0373622097519 0.0
1.43781643078 -0.0168710204164 0.0
1.35703014136 -0.0294129122744 0.0
1.43511446742 0.0307008943331 0.0
1.41178637903 0.030328701266 0.0
1.37957013958 0.0148871438418 0.0
1.43234676676 0.00134268018714 0.0
1.40618938561 -0.0307791718681 0.0
1.40970369566 -0.0259326139472 0.0
1.42986632433 0.00204656443908 0.0
1.39736021637 0.0183892302288 0.0
1.4030948835 0.0216628075296 0.0
1.45849962267 0.0229354572402 0.0
1.45811469603 -0.0230050595898 0.0
1.51006675338 -0.0198517342814 0.0
1.29389493707 0.00386185539041 0.0
1.09054705728 -0.081877234374 0.0
1.36055329825 0.00996632013938 0.0
1.36373653118 0.0293950272437 0.0
1.31377011337 0.0282826888696 0.0
1.35198200314 -0.021291508954 0.0
1.39656730773 -0.0111333616247 0.0
1.35114238418 0.0292370033855 0.0
1.38121152254 0.0491210993085 0.0
1.40117885092 -0.0150051853939 0.0
1.35230053774 -0.0281133168136 0.0
1.32138549279 -0.0470944573108 0.0
1.24185256803 -0.0654075664392 0.0
1.33334679663 0.0290440098058 0.0
1.39087008608 0.0106282584643 0.0
1.27252964519 0.00890435399715 0.0
1.30401784512 0.00543861453397 0.0
1.3412495269 -0.018973083527 0.0
1.37469045807 -0.0482009781738 0.0
1.22332709956 -0.00380000486692 0.0
1.24870166685 0.0318645114407 0.0
1.2578037495 0.0388071688521 0.0
1.23833020708 0.0447744594425 0.0
1.28607251649 0.0264135370297 0.0
1.2747145213 -0.022841287773 0.0
1.20611514761 -0.0129122365427 0.0
1.19668809775 -0.0146540738085 0.0
1.27485449252 -0.0297416646682 0.0
1.18639964422 0.119247477552 0.0
1.26475382651 -0.0145938335797 0.0
1.24171697371 0.00765956880277 0.0
1.28062972054 -0.038413483438 0.0
1.28959125316 0.0298309646812 0.0
1.24447417585 -0.0631627460008 0.0
1.12508174583 -0.0868450676814 0.0
1.23319118722 -0.0389910057569 0.0
1.13880437767 -0.0232002874232 0.0
1.17534596459 -0.0468228600159 0.0
1.23555112065 -0.012343735896 0.0
1.1866581444 -0.00527563972764 0.0
1.25337574158 0.00031001687547 0.0
1.07666865429 -0.0382990383633 0.0
1.13647529029 0.0345241827396 0.0
1.17084376524 0.0340614067681 0.0
1.2029492318 0.0488862421409 0.0
1.20447011113 0.0359305873232 0.0
1.15906064957 0.00136072400542 0.0
1.27228538149 0.00500437088355 0.0
1.22750475692 -0.0269467572478 0.0
1.19346213073 -0.0446366903224 0.0
1.21935293577 0.036409617675 0.0
1.17341472839 0.0036336539456 0.0
0.87980856436 0.0106752282046 0.0
0.977217957467 0.00822714618278 0.0
0.932697413036 -0.0400741898343 0.0
0.9323488039 -0.0391818869508 0.0
0.966521094731 0.0107258263853 0.0
0.892950673348 0.0170044666248 0.0
0.897980469612 0.0287001681441 0.0
0.849455361867 0.0354488372984 0.0
0.791823427849 -0.0279776681528 0.0
0.89582779503 -0.0213562450861 0.0
1.23563074225 0.025222418017 0.0
1.03516008372 -0.0456731464999 0.0
0.975134648245 0.0404647846301 0.0
1.15702209083 -0.0248129100697 0.0
1.01806447278 0.0148273828775 0.0
1.47494807827 -0.00916453908305 0.0
0.810367079044 -0.0101461303305 0.0
1.11893093939 0.0603365739551 0.0
1.48322976352 -0.0219400824982 0.0
1.13499077829 -0.0151749924253 0.0
0.842982697837 -0.0133863540617 0.0
0.988890870446 -0.0728980264347 0.0
0.791701261298 -0.0458987702091 0.0
1.09037983405 -0.0948824344777 0.0
0.908903155932 0.00934834003495 0.0
1.00387307536 0.046205481837 0.0
0.941635949494 -0.0495868790971 0.0
1.02541751666 -0.0154803783102 0.0
0.926552399895 -0.0472497569785 0.0
0.962345885294 -0.028168460304 0.0
0.98241318577 -0.00328030531499 0.0
0.904605419599 0.00331860766869 0.0
0.947682367525 0.0409542550218 0.0
0.966559149912 0.0219271175247 0.0
0.961287104585 0.0517560970874 0.0
0.808786172592 -0.0089866448164 0.0
0.89423591443 -0.00621790318317 0.0
0.856543695032 -0.0286897785049 0.0
0.900903252903 -0.0698481174496 0.0
0.912205335859 -0.0599570803816 0.0
0.887044476592 -0.0559543446384 0.0
0.803749495269 0.0269281770208 0.0
0.880562290201 0.000922621375171 0.0
1.46515647846 -0.00662421468374 0.0
1.46830152561 -0.0186506528529 0.0
0.835742709323 0.0208055032997 0.0
0.771053672821 0.0320362229402 0.0
1.48636308312 0.0222413723761 0.0
1.45648594727 0.0299475998555 0.0
0.780633295878 -0.0293870724898 0.0
0.84001093091 -0.0319743824307 0.0
0.850084693547 -0.0146366440014 0.0
0.763968411845 -0.000766629489644 0.0
0.795641937156 0.0312154692334 0.0
0.821448174299 0.0407444999361 0.0
0.772374774707 -0.0137592679786 0.0
1.48364283173 -0.0269302357175 0.0
1.46667651424 -0.0316366180462 0.0
1.46949053183 0.011431015896 0.0
1.48648200102 -0.0188789050613 0.0
1.47205558863 0.0317378245113 0.0
1.47767650133 0.0208879015241 0.0
1.47439901149 -0.0113135525395 0.0
1.4738804327 -0.0045217090789 0.0
1.41486423536 0.00295849031745 0.0
1.35254941892 -0.0411097086115 0.0
1.31784062216 -0.0460474704 0.0
1.48552817266 -0.0358338006449 0.0
1.48371158375 -0.0511209410275 0.0
1.46111893668 0.0151732393058 0.0
1.44584224317 0.0241213491698 0.0
1.48819401261 0.0210822352319 0.0
1.44722043538 0.0466144747972 0.0
1.47175303961 0.0250053639814 0.0
1.46106908264 0.0292485008427 0.0
1.45727577129 0.0279305425622 0.0
1.46336153319 -0.0178423698368 0.0
1.45328584743 -0.030790598107 0.0
1.44414859352 0.0114672980209 0.0
1.46503941684 -0.0269690368484 0.0
0.757996353353 0.00819532196789 0.0
0.820094984265 0.0308513494262 0.0
0.784119114878 0.0309998204932 0.0
0.828638067845 0.0547532000291 0.0
0.836188340076 0.0192527343655 0.0
0.838270529069 -0.0300278496396 0.0
0.780613424622 -0.0265705327949 0.0
0.759575596608 -0.00479946053335 0.0
0.85264399222 -0.0180909622675 0.0
0.916722677361 0.0145884116524 0.0
0.870526894522 -0.036555714512 0.0
1.18168838555 0.226336322735 0.0
0.859839902849 0.00104444441768 0.0
0.882655747302 -0.0328887833776 0.0
1.06199791848 -0.0422009029264 0.0
1.35700099777 -0.0366411213282 0.0
1.17421744082 -0.0952482452963 0.0
0.857159445378 0.00835598110668 0.0
0.864204258048 0.0169687252568 0.0
0.830408349262 0.0431471423337 0.0
0.880479112771 0.0373839900448 0.0
0.817597970147 0.0627556780446 0.0
0.838961878166 -0.0128566480968 0.0
0.800296815142 -0.0161859345072 0.0
0.886584178209 -0.029922547804 0.0
0.867823800103 -0.0111539710673 0.0
0.80778724576 -0.0288782833462 0.0
1.41596635224 -0.0266038118195 0.0
1.35222958669 -0.00885433210166 0.0
0.834581876011 0.0267692732534 0.0
1.42355494121 0.033761824621 0.0
1.3867903316 0.0333798314233 0.0
0.877378647385 -0.0399198139846 0.0
0.872709078399 0.0932124455768 0.0
1.44350316374 0.0247895933676 0.0
1.400421816 0.0136516431212 0.0
0.868884697463 -0.00204063299472 0.0
0.847055707391 0.000519974745801 0.0
1.43023663316 -0.032153234986 0.0
1.420888749 -0.0257108792311 0.0
1.43849388778 0.0223493931999 0.0
1.4050551389 -0.00972613585121 0.0
0.825126085179 -0.0176594047625 0.0
1.42989082638 0.0218021564891 0.0
1.33490258386 0.0430928914843 0.0
1.38002378045 -0.0577516865882 0.0
1.26597573645 0.0054626683956 0.0
1.28197472731 -0.0289079453439 0.0
1.24209231742 -0.0160176667595 0.0
1.24987346569 0.0394617447877 0.0
1.28968769492 0.0320976249125 0.0
1.29851170768 0.0119890469167 0.0
1.21467038521 0.0376709537982 0.0
1.22523784251 -0.00314846437992 0.0
1.30239549542 -0.00510702152177 0.0
1.23352622284 -0.023068251012 0.0
1.27439166171 -0.0422110810053 0.0
1.28810052454 -0.0373673219701 0.0
1.25046747154 -0.0452284622625 0.0
1.23420241318 0.00963105936939 0.0
1.27036553586 0.0268514560353 0.0
1.28735746994 0.036902320263 0.0
1.29315172938 0.0245754413992 0.0
1.26762616135 0.0153085562763 0.0
1.21416348079 -0.0802777348292 0.0
1.33473851759 -0.0317562449592 0.0
1.2867307098 0.0166919902674 0.0
1.24916084503 0.0361683803413 0.0
1.27385346846 -0.0420162695969 0.0
1.23682482529 -0.0185671191328 0.0
1.27355618625 0.0426619868346 0.0
1.34436754207 -0.0233054236821 0.0
1.20504363723 -0.00871838565459 0.0
1.30441285588 -0.0101407753237 0.0
1.33478088989 -0.0214557515269 0.0
1.3479684199 -0.0173738398463 0.0
0.8927051766 -0.146315623819 0.0
1.33183816438 0.00763279334613 0.0
1.28052838914 -0.0153021564216 0.0
1.48877284446 -0.0348106941486 0.0
1.49285923781 -0.00374614943555 0.0
1.30971519145 0.00171890061149 0.0
1.04213025944 0.109588826459 0.0
0.704316644703 -0.00378080891747 0.0
1.13715216187 0.171619152686 0.0
1.03059241306 -0.0645795116274 0.0
1.30323814936 -0.000280235332185 0.0
1.35655795311 -0.0353454276774 0.0
1.29676158761 -0.00217048090444 0.0
1.46197441376 -0.018497223081 0.0
1.3902720438 0.0206568678746 0.0
0.842097276633 0.107019392389 0.0
0.696556476665 0.0452787518098 0.0
1.06656925114 -0.0965693350543 0.0
0.87931883776 -0.0953070598035 0.0
1.45557236016 0.0215207278868 0.0
1.43236623335 0.055509943682 0.0
0.687340697634 0.051892629351 0.0
0.652173088493 0.0190442879644 0.0
0.685871214968 0.00251199356142 0.0
1.47130373821 0.02131134466 0.0
1.45291341466 -0.0249357621461 0.0
1.45716966676 -0.0247713950373 0.0
1.42119640771 0.0359536348913 0.0
1.4629384621 -0.0159483515313 0.0
1.4673224456 -0.0360003008128 0.0
1.45536807743 0.0259320788269 0.0
1.46644903249 0.0281842576076 0.0
0.658156798731 -0.0220860728306 0.0
0.678094734531 -0.0418222775521 0.0
1.47276120821 0.0224750829839 0.0
0.727799833471 0.0200277137519 0.0
0.635636521893 -0.0110965393723 0.0
0.702997191438 0.0439284147 0.0
0.686720515336 0.0272343591154 0.0
0.765278430633 -0.0436588920807 0.0
0.676527374738 -0.0463378372727 0.0
0.6407912682 -0.0151599441007 0.0
0.712951407385 -0.0405830636915 0.0
0.743903809376 0.0159565228405 0.0
0.692761243636 -0.0397446985729 0.0
0.619318106384 0.0320550385517 0.0
0.661002145545 0.0200024313015 0.0
0.487059545101 0.0386349371699 0.0
1.08270167497 -0.0113541326633 0.0
0.823629512532 -0.0294610770027 0.0
0.587167093018 0.00387414584653 0.0

SCALARS scalar1 double
LOOKUP_TABLE default
3.22101614408
6.09006665254
4.81652425926
4.74870664863
-6.09621035687
-2.33616436274
9.40038700878
8.71273003128
6.54874906616
6.04276344568
5.85016265073
6.18477389193
6.50124928731
6.13178581225
5.75733048219
5.07231623244
4.81077861629
4.84714768006
4.9644275776
5.48592359958
5.88027732067
6.31953164775
6.3358212793
6.08374648724
5.61973685666
5.16829217
4.77110529904
4.79123032038
5.18192529691
5.33074583823
7.13378789574
4.65145467718
7.78563981483
6.12833025645
6.06035888949
5.33550864199
4.83341423943
4.82599881889
4.88324274336
5.3634685391
5.81333337768
6.25230101867
6.32550400933
6.07667539836
5.63099971702
5.36501232454
4.64107720485
4.9051510727
5.26779398573
5.50402838031
5.93983215148
6.00200376742
6.45688141468
5.42078089952
3.59980036468
1.34948931049
-0.961629608206
-3.1872994586
-5.77717916204
-5.48230606113
-4.83012181122
-4.77104064708
-5.5033333847
-5.67954875201
-6.61093828565
-6.35719491318
-6.04245131914
-5.87835282423
-5.31456585204
-4.79275586123
-4.98135485148
-5.19405451682
-5.24595215
-6.11913277844
-6.40286521217
-6.22876437523
-6.34788493974
-7.30417194334
-4.43276338963
-5.11927421986
-5.05848692495
-5.26271777667
-5.69334149172
-5.12353299458
-7.86817047354
-6.48910454489
-5.86910968224
-5.8309424529
-5.35340822306
-4.75708978909
-4.96153690137
-5.17382275288
-5.38755522251
-6.04135334235
-6.58661502815
-6.24951497856
-6.37198792894
-6.18604440024
-5.43065445971
-5.53638450273
-5.97986044389
-5.8634932269
-6.66873106095
-7.12402018535
-8.34647413955
-10.6705826404
-11.7861945996
3.34818711574
0.0740250162479
-0.0133546150425
-1.87236188014
0.0317758503263
0.512370977225
0.799674049995
0.613106245628
0.865001420457
0.81001580296
1.19933711612
0.974968600039
1.113302326
1.09602070656
1.02724469498
1.08872043966
1.13651392641
0.26101200109
0.3588364545
0.143861289342
2.24767146965
-0.551716856819
-1.64775037489
-1.47188455339
-1.76086382714
-1.60544252986
-1.35020203295
-1.59402764706
-1.24478706282
-1.3043589214
-1.5929755635
1.90790868651
1.18047524981
-1.22691844568
-1.46463720678
2.23395759057
1.6050130751
-0.204939221388
-1.60841923648
2.36745906555
2.27973991339
2.1879255906
2.20073620712
2.14992274431
2.10988004366
2.41320848901
2.39747378104
2.11502056838
1.15261483107
-2.32572958064
-2.18990859222
-2.05780419273
1.87056128724
2.09751761947
1.53668507883
2.5097034524
2.80949114247
2.10939090313
-2.52920068907
-2.16504991707
-1.68501310625
-3.18519374308
2.96402432163
2.58546438604
-2.46403788208
-2.39831350285
-2.64955186861
-2.22929119482
-2.51463025904
-2.57091891998
-2.41615433644
-2.5813274096
3.37670986044
3.83517565955
3.50823842086
3.49079630838
3.86646261294
3.45156767117
3.49581393217
4.14484081347
3.71150997294
-3.49117077369
-2.42752681507
-3.07307466969
-2.88943100035
2.360695444
0.00409733733127
0.115299365012
-3.61522768735
-3.77123981522
0.157523774729
-0.046880977039
4.37320151499
2.70629901507
4.14524258631
-0.0253023758342
-3.35553421253
-3.6876164039
-3.7524463285
-3.0872474044
-3.54833970155
-3.67865851056
-3.84586236271
-3.44722449915
-3.44306284694
-3.76903766604
-3.56420810997
3.54310377744
3.97281875968
3.52147249871
3.41798247206
3.09459448588
3.77344488595
3.57974044248
3.96066385962
-0.0153820655676
0.0519457743876
4.18249825579
3.63592758572
0.536412205485
0.635536160724
3.66876883997
4.11371515113
4.39229772679
3.60063071728
3.93711831721
3.9664688019
3.64224406206
0.595466430578
0.700475844307
0.617794970268
0.620492345274
0.320702694127
0.627618857512
0.414011469596
0.500354255961
0.491127168147
0.323535696055
0.202195225854
0.363891178696
0.269295907882
0.585665067523
0.453397502291
0.450354286965
0.594845454719
0.55324612188
0.674557920829
0.508114728898
0.68076306606
0.709808014991
0.765508035811
0.651369917703
3.59525027706
4.21141721768
3.7795441587
3.80070730046
3.88407868058
4.18443560577
3.66971399238
3.56233127297
4.34152176791
-3.75531973834
-3.37290217248
0.0285902380933
-3.71439995215
-3.64663523583
-3.29155044044
1.8104851956
-0.17889062175
-3.6430171294
-4.52551475803
-3.77406663399
-3.90982052036
-4.19272991835
-4.69742092219
-3.69184671628
-4.3825980374
-4.31326944789
-3.71998527565
-1.22812111036
-0.280203828753
-3.64723682271
-1.13719406663
-0.910479393212
-3.61583963649
4.06503078179
-0.843259113631
-1.17512549528
4.52628628718
-3.51311408892
-1.0084431536
-1.12092810519
-1.03381225958
-1.15377710756
3.87968806795
-1.05870561046
-1.70172012534
-1.51690599324
2.05564838626
1.52470262282
2.24970264014
2.40277355613
2.00889958816
2.13425774824
2.35099855812
2.4350660295
2.07894585286
2.29793259283
2.21839910911
1.91990652514
1.20040707789
2.41159672613
1.96568925564
2.10006529644
1.6585791986
2.1136054637
0.990492017441
1.73791263236
2.2273846478
2.33442491961
2.22746206477
2.33318727867
0.533642271534
-1.77642654656
2.45114629714
2.07417742133
-1.53440208476
-1.48665659361
4.53228003896
1.82716872444
2.09871908429
0.655420882963
0.594210625433
-2.06112740307
1.5509855701
-3.93587773988
-4.82028146442
-0.949638069034
2.26942949147
-1.61521333833
0.154919483782
-0.800414296555
-0.197261895366
-3.77323946735
5.01262394103
2.76138151095
-4.68858052344
-0.766542162274
-0.547289532996
-5.00307789112
-3.74990455572
-4.95312701595
-0.510498082931
-0.707213767923
-1.07009366374
-1.204588628
-0.64866608066
-0.627868696512
-0.685396971684
-0.762564035675
-4.10679919991
-4.55460798003
-0.752009588342
-5.21756453571
-3.78468906691
-4.10391598949
-4.46827646314
3.70722414348
5.05458289901
3.82028927654
4.81194140545
-3.86792288858
-5.1039579084
4.04150748946
4.80052341324
4.86741043549
1.68244577199
-5.53003898006
-3.77851044182

SCALARS scalar2 double
LOOKUP_TABLE default
3.22101614408
6.09006665254
4.81652425926
4.74870664863
-6.09621035687
-2.33616436274
9.40038700878
8.71273003128
6.54874906616
6.04276344568
5.85016265073
6.18477389193
6.50124928731
6.13178581225
5.75733048219
5.07231623244
4.81077861629
4.84714768006
4.9644275776
5.48592359958
5.88027732067
6.31953164775
6.3358212793
6.08374648724
5.61973685666
5.16829217
4.77110529904
4.79123032038
5.18192529691
5.33074583823
7.13378789574
4.65145467718
7.78563981483
6.12833025645
6.06035888949
5.33550864199
4.83341423943
4.82599881889
4.88324274336
5.3634685391
5.81333337768
6.25230101867
6.32550400933
6.07667539836
5.63099971702
5.36501232454
4.64107720485
4.9051510727
5.26779398573
5.50402838031
5.93983215148
6.00200376742
6.45688141468
5.42078089952
3.59980036468
1.34948931049
-0.961629608206
-3.1872994586
-5.77717916204
-5.48230606113
-4.83012181122
-4.77104064708
-5.5033333847
-5.67954875201
-6.61093828565
-6.35719491318
-6.04245131914
-5.87835282423
-5.31456585204
-4.79275586123
-4.98135485148
-5.19405451682
-5.24595215
-6.11913277844
-6.40286521217
-6.22876437523
-6.34788493974
-7.30417194334
-4.43276338963
-5.11927421986
-5.05848692495
-5.26271777667
-5.69334149172
-5.12353299458
-7.86817047354
-6.48910454489
-5.86910968224
-5.8309424529
-5.35340822306
-4.75708978909
-4.96153690137
-5.17382275288
-5.38755522251
-6.04135334235
-6.58661502815
-6.24951497856
-6.37198792894
-6.18604440024
-5.43065445971
-5.53638450273
-5.97986044389
-5.8634932269
-6.66873106095
-7.12402018535
-8.34647413955
-10.6705826404
-11.7861945996
3.34818711574
0.0740250162479
-0.0133546150425
-1.87236188014
0.0317758503263
0.512370977225
0.799674049995
0.613106245628
0.865001420457
0.81001580296
1.19933711612
0.974968600039
1.113302326
1.09602070656
1.02724469498
1.08872043966
1.13651392641
0.26101200109
0.3588364545
0.143861289342
2.24767146965
-0.551716856819
-1.64775037489
-1.47188455339
-1.76086382714
-1.60544252986
-1.35020203295
-1.59402764706
-1.24478706282
-1.3043589214
-1.5929755635
1.90790868651
1.18047524981
-1.22691844568
-1.46463720678
2.23395759057
1.6050130751
-0.204939221388
-1.60841923648
2.36745906555
2.27973991339
2.1879255906
2.20073620712
2.14992274431
2.10988004366
2.41320848901
2.39747378104
2.11502056838
1.15261483107
-2.32572958064
-2.18990859222
-2.05780419273
1.87056128724
2.09751761947
1.53668507883
2.5097034524
2.80949114247
2.10939090313
-2.52920068907
-2.16504991707
-1.68501310625
-3.18519374308
2.96402432163
2.58546438604
-2.46403788208
-2.39831350285
-2.64955186861
-2.22929119482
-2.51463025904
-2.57091891998
-2.41615433644
-2.5813274096
3.37670986044
3.83517565955
3.50823842086
3.49079630838
3.86646261294
3.45156767117
3.49581393217
4.14484081347
3.71150997294
-3.49117077369
-2.42752681507
-3.07307466969
-2.88943100035
2.360695444
0.00409733733127
0.115299365012
-3.61522768735
-3.77123981522
0.157523774729
-0.046880977039
4.37320151499
2.70629901507
4.14524258631
-0.0253023758342
-3.35553421253
-3.6876164039
-3.7524463285
-3.0872474044
-3.54833970155
-3.67865851056
-3.84586236271
-3.44722449915
-3.44306284694
-3.76903766604
-3.56420810997
3.54310377744
3.97281875968
3.52147249871
3.41798247206
3.09459448588
3.77344488595
3.57974044248
3.96066385962
-0.0153820655676
0.0519457743876
4.18249825579
3.63592758572