# vtk DataFile Version 2.0
2D Simulation Python
ASCII
DATASET UNSTRUCTURED_GRID
FIELD FieldData 1
NODES 1 2 int
386 659

POINTS 386 double
0.0 1.0 0.0
1.725 0.9999999999999997 0.0
8.275 0.9999999999999999 0.0
10.0 1.0 0.0
10.0 -2.5225681708027654e-32 0.0
0.0 0.0 0.0
0.1916666666663293 1.0 0.0
0.3833333333324708 0.9999999999999999 0.0
0.574999999998553 0.9999999999999996 0.0
0.7666666666645966 0.9999999999999999 0.0
0.9583333333312576 0.9999999999999999 0.0
1.149999999998384 1.0 0.0
1.341666666665662 1.0 0.0
1.533333333332819 1.0 0.0
1.92348484848444 1.0 0.0
2.121969696968978 1.0 0.0
2.320454545453434 1.0 0.0
2.518939393937826 0.9999999999999998 0.0
2.717424242422235 1.0 0.0
2.915909090906411 1.0000000000000002 0.0
3.1143939393908 1.0 0.0
3.312878787875129 1.0 0.0
3.511363636359531 1.0 0.0
3.709848484843827 1.0 0.0
3.90833333332816 0.9999999999999999 0.0
4.106818181812215 1.0 0.0
4.305303030296804 0.9999999999999999 0.0
4.503787878781365 1.0 0.0
4.702272727265711 1.0 0.0
4.900757575750005 1.0 0.0
5.099242424235156 1.0 0.0
5.297727272720327 1.0 0.0
5.496212121205663 1.0000000000000002 0.0
5.694696969690998 1.0000000000000004 0.0
5.89318181817668 1.0000000000000002 0.0
6.09166666666213 1.0 0.0
6.290151515147423 1.0 0.0
6.488636363633031 1.0 0.0
6.687121212118713 0.9999999999999997 0.0
6.885606060604342 1.0 0.0
7.084090909089381 1.0 0.0
7.282575757574369 1.0 0.0
7.481060606059355 1.0 0.0
7.679545454544343 1.0 0.0
7.878030303029329 1.0 0.0
8.076515151514705 1.0 0.0
8.46666666666447 1.0 0.0
8.658333333329285 1.0 0.0
8.84999999999549 1.0 0.0
9.041666666661694 1.0 0.0
9.233333333327899 0.9999999999999999 0.0
9.42499999999549 0.9999999999999998 0.0
9.616666666663775 1.0 0.0
9.808333333331985 0.9999999999999998 0.0
10.0 0.7999999999999998 0.0
10.0 0.6000000000013869 0.0
10.0 0.4000000000016644 0.0
10.0 0.2000000000008322 0.0
9.799999999999999 -1.724428415735069e-17 0.0
9.6 -1.2317020894770017e-17 0.0
9.399999999999999 -3.183265999950913e-17 0.0
9.2 -1.2040113729420402e-17 0.0
8.999999999999998 3.8006381396754643e-32 0.0
8.799999999999997 -7.475525375318904e-18 0.0
8.599999999999998 1.231702089476998e-17 0.0
8.399999999999997 2.5327446964596138e-17 0.0
8.199999999999998 1.9412688502321878e-17 0.0
7.999999999999997 -3.128190160246309e-33 0.0
7.799999999999997 7.475525375318904e-18 0.0
7.599999999999998 -1.231702089476998e-17 0.0
7.399999999999997 -2.5327446964596138e-17 0.0
7.199999999999998 -2.4183178061258048e-17 0.0
6.999999999999997 1.28487370296756e-31 0.0
6.799999999999997 8.136985908472362e-18 0.0
6.599999999999998 1.231702089476998e-17 0.0
6.399999999999997 -3.295490389021182e-18 0.0
6.199999999999998 -2.271354947388263e-18 0.0
5.999999999999997 4.9984340923788124e-33 0.0
5.799999999999998 -7.269624170484008e-18 0.0
5.599999999999998 -1.231702089476998e-17 0.0
5.399999999999999 -2.4460085226607695e-17 0.0
5.199999999999998 2.271354947388263e-18 0.0
4.999999999999999 8.88275808039643e-32 0.0
4.799999999999999 -3.138716685376782e-18 0.0
4.599999999999999 3.096529826152068e-17 0.0
4.399999999999999 2.966425565453813e-17 0.0
4.199999999999999 1.8545326764333395e-17 0.0
3.999999999999999 -1.5640950801231544e-33 0.0
3.799999999999999 -1.4642198943385492e-17 0.0
3.599999999999999 -2.923057478554388e-17 0.0
3.399999999999998 -2.966425565453813e-17 0.0
3.199999999999998 -1.6317728735595978e-18 0.0
2.999999999999999 -2.4992170461894062e-33 0.0
2.799999999999998 1.420851807439127e-17 0.0
2.599999999999998 2.359272348861923e-17 0.0
2.399999999999999 1.708751045370626e-17 0.0
2.199999999999999 4.233858087524759e-18 0.0
1.999999999999998 6.765357279541537e-32 0.0
1.799999999999999 -1.6376922419362302e-17 0.0
1.6 -2.7760417768975843e-18 0.0
1.4 -2.7760417768975843e-18 0.0
1.199999999999999 -5.101219825513155e-18 0.0
0.9999999999999982 1.207863237507493e-31 0.0
0.7999999999999989 1.6376922419362302e-17 0.0
0.6000000000000014 1.752119132270047e-17 0.0
0.3999999999999986 1.752119132270047e-17 0.0
0.1999999999999993 6.402262432495745e-18 0.0
0.0 0.1999999999995579 0.0
0.0 0.3999999999989749 0.0
0.0 0.5999999999989468 0.0
0.0 0.7999999999994734 0.0
0.6588449120055755 0.5543279714432944 0.0
9.341154520261147 0.5376005523541408 0.0
8.741436328442829 0.5744697236023556 0.0
1.2585605821774504 0.5604345321862384 0.0
8.162845794064557 0.5771822174320108 0.0
1.8371386998386943 0.5684012907870337 0.0
2.430436822911477 0.6072093690696531 0.0
7.569481406536499 0.5883793366837338 0.0
3.0304878274668763 0.6012868560680008 0.0
6.969029581864553 0.6011404017861184 0.0
3.628659917743177 0.5924078502414392 0.0
6.367985095119576 0.5990808966166448 0.0
4.229397752889 0.5974453330723672 0.0
5.7951354482868345 0.5206016542420093 0.0
4.802476715722037 0.5337124829575782 0.0
5.298819996433769 0.5104791034247885 0.0
9.677455170891692 0.6931226965635199 0.0
0.3225446752003475 0.707887369600121 0.0
4.530523257992124 0.3470209638198731 0.0
3.91881947219989 0.3700547525479783 0.0
6.067966361615883 0.3395005550849712 0.0
3.3194076800944097 0.36977205790218526 0.0
6.679658097722217 0.3786662319966298 0.0
7.87898979885496 0.3642746321552195 0.0
2.1209782726475757 0.37056835640673536 0.0
2.7201061798219133 0.3821978422540132 0.0
7.279717677129124 0.3682297068457632 0.0
9.037272604782233 0.6714790387837127 0.0
0.9627262191076753 0.6735880152106017 0.0
1.5320802368083764 0.3523865278134334 0.0
8.467913656459203 0.368285600338421 0.0
8.458297713793192 0.6887340919197792 0.0
1.5416964172762069 0.6712496014382171 0.0
0.9793974333317188 0.36601138870381345 0.0
9.020601256054912 0.36462284150232915 0.0
4.527197661302905 0.6996943180060865 0.0
3.921399405582176 0.699402207594135 0.0
6.069687257960369 0.6917339407926081 0.0
2.1183728572610336 0.6953851461209279 0.0
7.881598275757736 0.688419342705616 0.0
3.3233573559077385 0.6971420828780448 0.0
6.6755592748668695 0.7091636365949501 0.0
2.7253671597796854 0.711204298029943 0.0
7.274466072866403 0.696299729206863 0.0
0.33283888765809 0.31064465034347094 0.0
9.667160944801745 0.29661653878266575 0.0
5.581324716661145 0.31127459874904784 0.0
5.017219637472839 0.32033840316354933 0.0
5.509458042763094 0.6840345967860809 0.0
5.087391352107521 0.69119211325034 0.0
0.6618991280915414 0.7430902596790169 0.0
9.338100445722786 0.728009469190049 0.0
8.747626998236106 0.7461283994863386 0.0
1.2523707323460804 0.733952589689091 0.0
8.67039065402393 0.28272827076042667 0.0
1.329606340321682 0.26945890942927536 0.0
0.6804003348859228 0.24390504562222928 0.0
9.319599243935654 0.22993738488526289 0.0
8.169911354271143 0.7490262458898092 0.0
1.830077454405932 0.7407352854855485 0.0
8.082244818921069 0.27979564633920256 0.0
1.9177396785067664 0.27646331159631055 0.0
7.485183653598716 0.27750358587115914 0.0
2.5147320135038167 0.2936208932468674 0.0
6.885163558200915 0.2884877699407458 0.0
3.114401414833993 0.28519055949805744 0.0
6.284937003816605 0.2766264660253293 0.0
3.7137859852752184 0.2802139019335139 0.0
2.4224466064310333 0.818084485381496 0.0
7.577506327595141 0.8060253709087138 0.0
3.021602486970989 0.8144700000861238 0.0
6.978108180367462 0.8142742537223433 0.0
3.6184572827223644 0.808613907348448 0.0
6.3794764146144844 0.8152008385123611 0.0
4.216883098081658 0.8137962751189646 0.0
5.793598971326661 0.8391766281336481 0.0
4.802574129858081 0.8463110595569726 0.0
5.299579183193144 0.18057488666166457 0.0
4.313876738936158 0.2780574370701603 0.0
4.743203584322843 0.24332524210039752 0.0
5.855725939191808 0.23433532739509735 0.0
5.298371861024261 0.7098329964080802 0.0
0.19483679219004313 0.5074866946156721 0.0
9.80516310252573 0.49677776207783864 0.0
9.486963894894675 0.15665693636095016 0.0
0.5130359191253229 0.16802412313029177 0.0
9.56892660742658 0.503120992167411 0.0
0.4310731067747131 0.5212924612928203 0.0
9.50913929187227 0.8303356946554811 0.0
0.49086053605463725 0.8423638423892795 0.0
9.823684963257849 0.8239815524495169 0.0
0.17631498583052943 0.8314961839535824 0.0
7.69067782471412 0.18815261946652423 0.0
2.3092884959145277 0.19726543025856144 0.0
8.876665371051303 0.19398789082595494 0.0
1.123333381071065 0.18962598630587907 0.0
7.090882388257136 0.19339079297561748 0.0
2.9089405942877424 0.19698565155962813 0.0
6.4910777188091995 0.19479037173586358 0.0
3.5085300647645337 0.1902135386728381 0.0
1.713319115177887 0.18431958890362163 0.0
8.286674604548276 0.1919445467567016 0.0
4.108120935605382 0.19193150544838322 0.0
8.57756216722068 0.8342256185603121 0.0
1.4224352384246828 0.822932214612848 0.0
8.923334607077663 0.8279227325107793 0.0
1.0766643883997633 0.8246679474242234 0.0
0.8418668303469244 0.8279472230296936 0.0
9.158132656603422 0.8218650155098738 0.0
8.345852633509903 0.8347222324071183 0.0
1.6541423981442456 0.8246980148131453 0.0
5.592449705176883 0.49340706417033614 0.0
5.005263971902297 0.5036351234719235 0.0
7.78940730382436 0.8359625929129013 0.0
2.2105703832129024 0.8428169534622244 0.0
7.776869325325386 0.545530405302523 0.0
2.2230839505149778 0.558408509434411 0.0
2.8152742199137504 0.848022532326695 0.0
7.184592513496667 0.8409892985369465 0.0
3.412053002000092 0.8394315400675662 0.0
6.587036303677635 0.8478968844809072 0.0
4.009200532882525 0.8427039912829639 0.0
5.984833094103012 0.8425802226819838 0.0
4.611343614898292 0.848650199121998 0.0
7.175169919563447 0.5543293946433069 0.0
2.8245623892035727 0.5658520556956863 0.0
6.575206931819697 0.5639204641332781 0.0
3.4230845743321123 0.5516017040979057 0.0
5.978032593954388 0.5297503768329089 0.0
4.022404470555812 0.5556974314650912 0.0
4.61957326184104 0.5409355502440235 0.0
8.54900124183865 0.5499742212450589 0.0
1.4509934182508504 0.5312109393613387 0.0
1.0633152843148879 0.5298131345193856 0.0
0.8722645582968795 0.5278872903110579 0.0
8.936682888212584 0.5336212268522031 0.0
9.12773437949362 0.5202598691464762 0.0
4.4341654370442125 0.5559833074986442 0.0
1.6373229754177945 0.5285422995367545 0.0
8.362667955025804 0.5452405027988371 0.0
2.03287332779698 0.5504605333461591 0.0
7.967099554747703 0.5478863650358289 0.0
[...]
POINT_DATA 386
VECTORS vector double
1.0 0.0 0.0
0.0 0.0 0.0
0.0 0.0 0.0
0.0 0.0 0.0
0.0 0.0 0.0
1.0 0.0 0.0
0.0 0.0 0.0
0.0 0.0 0.0
0.0 0.0 0.0
0.0 0.0 0.0
0.0 0.0 0.0
0.0 0.0 0.0
0.0 0.0 0.0
0.0 0.0 0.0
0.0 0.0 0.0
0.0 0.0 0.0
0.0 0.0 0.0
0.0 0.0 0.0
0.0 0.0 0.0
0.0 0.0 0.0
0.0 0.0 0.0
0.0 0.0 0.0
0.0 0.0 0.0
0.0 0.0 0.0
0.0 0.0 0.0
0.0 0.0 0.0
0.0 0.0 0.0
0.0 0.0 0.0
0.0 0.0 0.0
0.0 0.0 0.0
0.0 0.0 0.0
0.0 0.0 0.0
0.0 0.0 0.0
0.0 0.0 0.0
0.0 0.0 0.0
0.0 0.0 0.0
0.0 0.0 0.0
0.0 0.0 0.0
0.0 0.0 0.0
0.0 0.0 0.0
0.0 0.0 0.0
0.0 0.0 0.0
0.0 0.0 0.0
0.0 0.0 0.0
0.0 0.0 0.0
0.0 0.0 0.0
0.0 0.0 0.0
0.0 0.0 0.0
0.0 0.0 0.0
0.0 0.0 0.0
0.0 0.0 0.0
0.0 0.0 0.0
0.0 0.0 0.0
0.0 0.0 0.0
0.907404405655 0.0990548434349 0.0
1.40379923181 0.00212686288232 0.0
1.42058976018 -0.00746078939528 0.0
0.999550958743 -0.0862895987647 0.0
0.0 0.0 0.0
0.0 0.0 0.0
0.0 0.0 0.0
0.0 0.0 0.0
0.0 0.0 0.0
0.0 0.0 0.0
0.0 0.0 0.0
0.0 0.0 0.0
0.0 0.0 0.0
0.0 0.0 0.0
0.0 0.0 0.0
0.0 0.0 0.0
0.0 0.0 0.0
0.0 0.0 0.0
0.0 0.0 0.0
0.0 0.0 0.0
0.0 0.0 0.0
0.0 0.0 0.0
0.0 0.0 0.0
0.0 0.0 0.0
0.0 0.0 0.0
0.0 0.0 0.0
0.0 0.0 0.0
0.0 0.0 0.0
0.0 0.0 0.0
0.0 0.0 0.0
0.0 0.0 0.0
0.0 0.0 0.0
0.0 0.0 0.0
0.0 0.0 0.0
0.0 0.0 0.0
0.0 0.0 0.0
0.0 0.0 0.0
0.0 0.0 0.0
0.0 0.0 0.0
0.0 0.0 0.0
0.0 0.0 0.0
0.0 0.0 0.0
0.0 0.0 0.0
0.0 0.0 0.0
0.0 0.0 0.0
0.0 0.0 0.0
0.0 0.0 0.0
0.0 0.0 0.0
0.0 0.0 0.0
0.0 0.0 0.0
0.0 0.0 0.0
0.0 0.0 0.0
0.0 0.0 0.0
1.0 0.0 0.0
1.0 0.0 0.0
1.0 0.0 0.0
1.0 0.0 0.0
1.23751020942 -0.0401173604104 0.0
1.46361669622 -0.0364044528374 0.0
1.44255724703 -0.0117764159679 0.0
1.35566687156 -0.026988642543 0.0
1.43974647858 0.026919363346 0.0
1.41055956891 0.0261729691952 0.0
1.38715184947 0.0155809541935 0.0
1.43103730692 -0.00363323693002 0.0
1.40479418544 -0.0261329688298 0.0
1.41159308337 -0.0224839466162 0.0
1.42715308037 -0.000498305278366 0.0
1.40838296985 0.0178967690742 0.0
1.40923681632 0.020286390382 0.0
1.45655254318 0.0195431688598 0.0
1.45879266961 -0.0157303419108 0.0
1.50342010285 -0.0160731341079 0.0
1.28664333916 0.000401472461163 0.0
1.0982726355 -0.0833717125829 0.0
1.34196252937 0.0141942908152 0.0
1.36015502891 0.0231328072838 0.0
1.30019347388 0.0233987393239 0.0
1.35510710897 -0.019601409246 0.0
1.38288030488 -0.00788955477305 0.0
1.34570239332 0.0228556712687 0.0
1.3759887031 0.0431835336126 0.0
1.39828875591 -0.00788503845332 0.0
1.3538124158 -0.0262638597462 0.0
1.32375342202 -0.0374066020961 0.0
1.23775089316 -0.0553186465488 0.0
1.33808305204 0.0257755200586 0.0
1.3732821894 0.011840493308 0.0
1.28815445304 0.00855352936872 0.0
1.29605726086 0.00196936582039 0.0
1.34566055195 -0.00833907586968 0.0
1.37301371388 -0.0402671521504 0.0
1.24399643143 -0.0019546085224 0.0
1.25127505652 0.0284700859658 0.0
1.27542061646 0.0337991098316 0.0
1.2472463399 0.0383470665123 0.0
1.29024325851 0.0204837123862 0.0
1.2581954001 -0.021791967485 0.0
1.22944140398 -0.0108139225101 0.0
1.20997425881 -0.0096508751755 0.0
1.26613007593 -0.0283647857543 0.0
1.17481005308 0.125833675795 0.0
1.27276164349 -0.0172406913967 0.0
1.24661323074 0.00519762694134 0.0
1.27506480577 -0.0279284635227 0.0
1.26518786491 0.0250512697113 0.0
1.24044844517 -0.0541933098212 0.0
1.13641836393 -0.0729943045052 0.0
1.21554761947 -0.0371181714328 0.0
1.16105597336 -0.0157108458318 0.0
1.15558673631 -0.0425167696052 0.0
1.20475011979 -0.00198001087608 0.0
1.20977593679 -0.00506483121197 0.0
1.23507590224 0.015142319353 0.0
1.09647212245 -0.0342064067462 0.0
1.1590849606 0.0288290220747 0.0
1.15965289735 0.024431023191 0.0
1.19101199745 0.0405241467871 0.0
1.20302774254 0.028758986077 0.0
1.17176458643 -0.00297500328425 0.0
1.24649253194 0.00827588083317 0.0
1.20791989593 -0.0182416180748 0.0
1.20589607742 -0.0405114302688 0.0
1.1912665055 0.032131001792 0.0
1.18277705293 0.000158511350893 0.0
0.945953011227 0.00988982585425 0.0
0.914534792533 0.000109375692778 0.0
0.934610782421 -0.023044588414 0.0
0.948447802854 -0.0229079567274 0.0
0.900805679185 0.00133176577925 0.0
0.969338813802 0.0133555302398 0.0
0.942258803553 0.020131792735 0.0
0.81518438006 0.0178073167764 0.0
0.842963448319 -0.013410262382 0.0
0.939443875364 -0.0140043820864 0.0
1.20197629576 0.0230904040026 0.0
0.995589912883 -0.0447379901806 0.0
0.993063442448 0.0375138606833 0.0
1.12687931236 -0.0150192477162 0.0
1.0151142802 0.00765377334123 0.0
1.47575767222 -0.00949413098673 0.0
0.870600789353 -0.0113435063809 0.0
1.05250578678 0.0744544906229 0.0
1.483980765 -0.0211479388919 0.0
1.13640905154 -0.00910763743556 0.0
0.779764837714 -0.0159211023391 0.0
1.05182761058 -0.0606829132067 0.0
0.76378227005 -0.0470911108767 0.0
1.11632657387 -0.134796373344 0.0
0.955099940154 0.000593853478838 0.0
0.951255585465 0.0367638621028 0.0
0.91007481961 -0.0341781521842 0.0
1.0451564256 -5.90158768653e-05 0.0
0.935228082037 -0.0347557547482 0.0
0.939203232405 -0.0142463701557 0.0
0.908017371969 -0.00306787752016 0.0
0.965160426296 0.00211517223518 0.0
1.00146611521 0.0312185915291 0.0
0.910868807813 0.0123248786968 0.0
0.939474027013 0.0366006813997 0.0
0.882859975692 -0.00503883271741 0.0
0.827959452667 -0.00711313218818 0.0
0.88076399546 -0.0126816116955 0.0
0.890691495227 -0.0524158043892 0.0
0.947100638111 -0.0426217810342 0.0
0.865295138277 -0.0416073058571 0.0
0.871703056256 0.0229452088125 0.0
0.817029698672 -0.00735202701406 0.0
1.46199617207 -0.00852988444254 0.0
1.46534803752 -0.00978728009268 0.0
0.78651771407 0.00957668360475 0.0
0.818618115927 0.0247318518647 0.0
1.48634129162 0.0197175857588 0.0
1.45992040596 0.0286294488071 0.0
0.82670098323 -0.0161096769295 0.0
0.811316388534 -0.0210296824804 0.0
0.77730428503 -0.0161260694069 0.0
0.850642676433 0.00196348840723 0.0
0.798135035074 0.0197931145516 0.0
0.829304539108 0.0282162154446 0.0
0.847082387197 -0.00609991575113 0.0
1.48124631482 -0.0234570091056 0.0
1.47018370444 -0.0257283303918 0.0
1.47586019855 0.00924192454119 0.0
1.48180579276 -0.0209391619337 0.0
1.47068592642 0.02578512501 0.0
1.47938514971 0.0185634816891 0.0
1.47750424113 -0.00722354777352 0.0
1.47707858379 -0.00182598483724 0.0
1.41329565569 0.0014807636838 0.0
1.35237194842 -0.0355222719463 0.0
1.31661760737 -0.0366123357299 0.0
1.48642530486 -0.0306625168785 0.0
1.48337137205 -0.0470659526548 0.0
1.46489784661 0.0130065226043 0.0
1.44336719501 0.0208896155359 0.0
1.49177466479 0.0181677399134 0.0
1.44751986447 0.041963834034 0.0
1.47288988615 0.0219714559166 0.0
1.46139257642 0.0283105245367 0.0
1.45960212797 0.0257688762407 0.0
1.4605930501 -0.0143011932914 0.0
1.45806183837 -0.0273442470542 0.0
1.44877305176 0.0129061051828 0.0
1.46124149063 -0.0298616825599 0.0
0.833810601203 0.00708506999938 0.0
0.772618075323 0.0197962438154 0.0
0.839018760095 0.0238381858493 0.0
0.828568422853 0.0387967479472 0.0
0.837576111824 0.0042638565042 0.0
0.797448284425 -0.0197516805474 0.0
0.840662573893 -0.0150308887331 0.0
0.834209427913 0.00116282403476 0.0
0.787874374102 -0.0174780844948 0.0
0.887440845709 0.0342815249523 0.0
0.923172955395 -0.0453911255306 0.0
1.16652307043 0.178709203262 0.0
0.881677622982 -0.0150477968365 0.0
0.895692162431 -0.0211732758838 0.0
1.03451429763 -0.0215539922957 0.0
1.34953012439 -0.0400050087572 0.0
1.17843964301 -0.0822733172896 0.0
0.932667660831 0.00388104408749 0.0
0.787421651116 0.0190408898192 0.0
0.847463607798 0.028976249641 0.0
0.863621257531 0.0220804176885 0.0
0.782955331162 0.0446758332549 0.0
0.761866231385 -0.0120178004857 0.0
0.850756623496 -0.0119794927514 0.0
0.821588426842 -0.0147582770068 0.0
0.801627632952 -0.00175831333234 0.0
0.860392811194 -0.0242059569605 0.0
1.40981981332 -0.0233379609826 0.0
1.35719302588 -0.00839220115849 0.0
0.860470342438 0.0114598061635 0.0
1.41082632577 0.0316402677216 0.0
1.38806216088 0.0305767259716 0.0
0.891918135626 -0.02270832686 0.0
0.845682959892 0.120327781567 0.0
1.43411746678 0.0259332905392 0.0
1.40317878787 0.0120311302654 0.0
0.814426799452 -0.0244348153837 0.0
0.908650512993 -0.00118896509304 0.0
1.43311319781 -0.0295842898262 0.0
1.41694150946 -0.0239633466469 0.0
1.42304162234 0.0212173297671 0.0
1.41041179214 -0.0116897300893 0.0
0.838163741743 0.003934769105 0.0
1.4183857374 0.0203847177567 0.0
1.33131601562 0.0366456616835 0.0
1.3716329656 -0.0518066650603 0.0
1.28437253286 0.00864228971222 0.0
1.26940242324 -0.0301881372977 0.0
1.25775655128 -0.0104732667685 0.0
1.25887608502 0.034252415695 0.0
1.30025863663 0.0269503119541 0.0
1.29872389724 0.00614327538673 0.0
1.22599463859 0.0342114135286 0.0
1.24990142841 -0.00184369717052 0.0
1.29060380625 -0.00775706365942 0.0
1.23944961363 -0.0146283622122 0.0
1.27039149188 -0.0364404170962 0.0
1.29732235572 -0.0344520534333 0.0
1.24381255294 -0.0436339903979 0.0
1.25468412516 0.00886453473402 0.0
1.27189140567 0.0251514765425 0.0
1.29851424652 0.0359675044338 0.0
1.28362399276 0.0208340936295 0.0
1.28678673943 0.0134762500163 0.0
1.2145396119 -0.0747447840958 0.0
1.33145195683 -0.0317953372819 0.0
1.28526983668 0.0110674284472 0.0
1.26808819594 0.0303231050801 0.0
1.26076371791 -0.0360846188872 0.0
1.2526295873 -0.0122683311294 0.0
1.2730723997 0.0568054538059 0.0
1.35144385135 -0.0236903111397 0.0
1.21967282945 -0.00461962975707 0.0
1.29858809426 -0.012779743184 0.0
1.33524390793 -0.0200968493975 0.0
1.34660675707 -0.0114109826763 0.0
0.838211953479 -0.146442567365 0.0
1.32840382615 -0.00119971325009 0.0
1.28691908301 -0.00548214520793 0.0
1.48773428492 -0.024930380116 0.0
1.49004070304 -0.00280484332171 0.0
1.31045670263 0.00175152757371 0.0
1.03425508184 0.102566553553 0.0
0.764800905913 -0.010936226935 0.0
1.08210225322 0.167446866705 0.0
1.017067126 -0.0831733438148 0.0
1.30514273006 0.000665884374532 0.0
1.35929406722 -0.0362852928821 0.0
1.29819333477 0.00401288509821 0.0
1.45632112543 -0.0162745459433 0.0
1.39325978183 0.0175438001269 0.0
0.853813181368 0.0827045685549 0.0
0.637603138544 0.0351436459517 0.0
1.12475745507 -0.115474766436 0.0
0.805039061381 -0.0814080673005 0.0
1.44906067737 0.0189845180339 0.0
1.43224781439 0.0529453090623 0.0
0.623174294484 0.0479260137312 0.0
0.72181862662 0.0107921754922 0.0
0.610160952828 -0.00447246474955 0.0
1.46618017771 0.0248326911432 0.0
1.45504374597 -0.0268473850327 0.0
1.45185100098 -0.0212384799919 0.0
1.41469648501 0.0314002721691 0.0
1.46369429062 -0.0147404631039 0.0
1.46328364586 -0.0349946593826 0.0
1.45948140175 0.0240985070585 0.0
1.45534711772 0.0249936999293 0.0
0.674563964662 -0.0162866290184 0.0
0.643959179651 -0.0298017794352 0.0
1.46568940396 0.0233132229123 0.0
0.643851113917 0.0253733330004 0.0
0.71431691956 -0.0120273474525 0.0
0.736689068318 0.0317892663293 0.0
0.660308730252 0.0147835540356 0.0
0.843105303973 -0.0312289650638 0.0
0.614872074534 -0.0446396153742 0.0
0.707231949184 -0.00554966594012 0.0
0.66186202636 -0.0323382372149 0.0
0.809388089693 0.0191232254686 0.0
0.619743850007 -0.0284675641275 0.0
0.663721908608 0.0246192531091 0.0
0.614872534708 0.00809545870924 0.0
0.4729138405 0.0259374794767 0.0
1.11515662942 -0.0812309158999 0.0
0.739139637851 -0.0156557005321 0.0
0.646907073196 0.0056943173943 0.0

SCALARS scalar1 double
LOOKUP_TABLE default
2.24225348573
4.97396104415
5.89073085766
4.96851398947
-6.11011140193
-2.50235764989
10.6943078803
10.2338580292
8.06150871621
7.11926180153
5.99343464473
5.49494537201
5.21671948249
4.89840044961
5.30754776867
5.52531976036
5.7991476409
6.05961228702
6.05925678284
5.80919731458
5.4686053455
5.14185973317
5.0594332586
5.07103921952
5.21293466984
5.60341850376
5.76058643004
6.13574593337
6.2571030289
5.81818147422
6.94800976585
3.84938852156
6.52329528241
5.19907394613
5.64711878239
5.80911726707
5.83649967416
6.11060352859
6.12799126776
5.87693279682
5.58966033137
5.21706082441
5.09781052261
5.04253143699
5.14509586104
5.80294686972
5.86363924027
6.21767887201
6.01427209572
5.40616856265
4.97884271091
4.66988620338
5.11827633816
4.56928114109
3.67520527593
1.28658061577
-1.00919019705
-3.11109196335
-6.71665634213
-6.78449038141
-6.13926432085
-5.55607902348
-5.4173830822
-4.82751679507
-5.131364577
-5.2039447216
-5.24584172894
-5.78694517276
-5.89445295133
-5.94602984143
-6.27561183498
-5.76646464067
-5.14934338471
-5.23975750417
-5.24700353654
-4.86665250988
-5.2302240579
-7.01508683436
-4.97367256036
-6.16063495513
-6.00748242393
-5.82921400464
-5.67559930467
-4.41973562613
-6.29202037117
-5.0942726171
-5.06093975829
-5.84764278691
-6.25541244104
-5.92931652806
-5.93516280262
-5.87317691959
-5.337857982
-5.31796893474
-5.14137518685
-4.9802145292
-5.71492389035
-6.28005494326
-6.23516394289
-6.66979501385
-7.47655140837
-6.6895445881
-6.63408308717
-6.03960134006
-6.60086842197
-9.10347950332
-10.5862724695
2.92190295658
0.00715609221565
-0.00782006685722
-2.61127326122
0.0607556127951
0.464758032511
0.75279406798
0.60673570864
0.796777851087
0.793348953417
1.16181769955
0.955133295354
1.12107058071
1.04225214724
1.03686632779
0.985759938846
1.0581254978
0.175125285031
0.312174939203
0.10830258539
2.41686499982
-0.578071230385
-1.78585813122
-1.5063055347
-1.78925143636
-1.53821115173
-1.4873179853
-1.57884993438
-1.31591403594
-1.36180218196
-1.56504651468
1.91708927324
1.19438297773
-1.14111004927
-1.6010834144
2.12845363631
1.74735750766
-0.189045872197
-1.62581475955
2.24130233143
2.31289899671
2.05271484369
2.1388901155
2.17866450183
2.24155199342
2.2909245548
2.31211354665
2.20766803016
1.00826552232
-2.21291400409
-2.06369159128
-2.06538643055
2.03681579175
2.16106762559
1.19256555656
2.72137051295
2.64330301669
2.30248112731
-2.78001768809
-1.95605108669
-2.29434583004
-2.97071518845
2.84911205587
2.77289055758
-2.51426049391
-2.30314056908
-2.47092898928
-2.50106646966
-2.62134461364
-2.53792567807
-2.6130561747
-2.4157618513
3.11385918302
4.18017470906
3.43550908519
3.41182045956
4.21215160542
3.1938921
3.38933609378
4.51044224964
3.51186437619
-3.29274794573
-2.61899753826
-3.28591760507
-2.7078864609
2.4746610293
0.0398390225946
0.0668286524214
-3.33558710395
-4.29461636272
0.110316569084
0.0152791390881
4.67600514028
2.21513554075
4.40253751084
-0.226373067387
-3.09318066458
-3.85660631079
-3.92344637547
-3.07004648663
-3.51005806146
-3.9039276643
-4.08290069161
-3.1359902679
-3.10426752244
-3.89416069837
-3.54189097885
3.27412631125
4.19086512678
3.42612459039
3.38155080157
2.84224182719
3.82865000475
3.38758304976
4.23346296058
-0.0835169857749
-0.0037446652493
4.36483183097
3.54866155828
0.46167700589
0.628169711706
3.45652427725
4.16704948132
4.54322666742
3.3968697855
4.07239595194
4.13277976409
3.39741877035
0.539556877649
0.706192682351
0.562859503432
0.596311284617
0.243112929985
0.574027033763
0.386395274868
0.453712123015
0.477750765058
0.317354012709
0.203598183117
0.31981097998
0.222765129122
0.554854289105
0.440849245772
0.404856736377
0.581621830017
0.476566465869
0.62219162574
0.434578916407
0.672785432821
0.651823448889
0.77447597775
0.584234262806
3.41754157146
4.37534422434
3.71605415155
3.86654746033
4.03786712217
4.21141467919
3.47512442501
3.33936642828
4.50495500489
-3.70208537897
-3.08388966923
0.106214369551
-3.53675572562
-3.60212141932
-3.56485006359
1.88213314041
-0.169985595952
-3.31826063159
-4.59405883365
-3.66022822681
-3.88269250315
-4.17717874621
-4.89533460895
-3.4945662266
-4.6636758111
-4.42576518044
-3.53945502789
-1.26225287997
-0.26862231999
-3.46650840604
-1.21700151326
-0.916846847101
-3.59419107729
4.03937522487
-0.885550724502
-1.18413773895
4.72031876608
-3.2185149738
-0.991616169451
-1.13101390553
-1.13121992039
-1.14924600887
3.80767438066
-1.11707302686
-1.67202914642
-1.5654447454
2.00251484031
1.61341883097
2.19215673525
2.29459650706
1.9485839947
2.36639684503
2.23926664111
2.1950963536
2.24471257749
2.30847479289
2.22358321782
1.88045856016
1.24756543816
2.23565884348
1.97626153059
2.01890861745
1.69014385101
2.02418898155
0.927362772283
1.75424221869
2.47015791243
2.17032205889
2.28189460306
2.30217297307
0.525403579547
-1.74617363648
2.24248649216
2.21835139938
-1.50315970953
-1.46804372337
4.15657190282
1.88159348544
2.08932832519
0.62607099095
0.582734567786
-2.07002000235
1.54808074477
-3.78264036196
-4.51013335853
-0.911187193352
2.25916891532
-1.60311518708
0.19752046114
-0.819305653266
-0.211730093211
-3.77934280931
5.05058133923
2.98280091122
-4.90031428019
-0.821381835677
-0.581617665576
-4.78794521584
-3.68589665395
-4.83007284337
-0.49044761095
-0.753253183701
-1.08743307695
-1.24407716848
-0.63393964635
-0.656030239846
-0.738171837813
-0.812503054601
-4.11912895261
-4.56416767365
-0.773121605087
-5.00885778143
-3.6085703384
-4.09149562326
-4.38777742872
3.53016234717
4.87028525473
3.81453145031
4.63774988273
-3.89948385739
-5.0319737908
4.11555430523
4.7376727413
4.66923509927
1.1916837265
-5.41100485593
-3.82809263688

SCALARS scalar2 double
LOOKUP_TABLE default
2.24225348573
4.97396104415
5.89073085766
4.96851398947
-6.11011140193
-2.50235764989
10.6943078803
10.2338580292
8.06150871621
7.11926180153
5.99343464473
5.49494537201
5.21671948249
4.89840044961
5.30754776867
5.52531976036
5.7991476409
6.05961228702
6.05925678284
5.80919731458
5.4686053455
5.14185973317
5.0594332586
5.07103921952
5.21293466984
5.60341850376
5.76058643004
6.13574593337
6.2571030289
5.81818147422
6.94800976585
3.84938852156
6.52329528241
5.19907394613
5.64711878239
5.80911726707
5.83649967416
6.11060352859
6.12799126776
5.87693279682
5.58966033137
5.21706082441
5.09781052261
5.04253143699
5.14509586104
5.80294686972
5.86363924027
6.21767887201
6.01427209572
5.40616856265
4.97884271091
4.66988620338
5.11827633816
4.56928114109
3.67520527593
1.28658061577
-1.00919019705
-3.11109196335
-6.71665634213
-6.78449038141
-6.13926432085
-5.55607902348
-5.4173830822
-4.82751679507
-5.131364577
-5.2039447216
-5.24584172894
-5.78694517276
-5.89445295133
-5.94602984143
-6.27561183498
-5.76646464067
-5.14934338471
-5.23975750417
-5.24700353654
-4.86665250988
-5.2302240579
-7.01508683436
-4.97367256036
-6.16063495513
-6.00748242393
-5.82921400464
-5.67559930467
-4.41973562613
-6.29202037117
-5.0942726171
-5.06093975829
-5.84764278691
-6.25541244104
-5.92931652806
-5.93516280262
-5.87317691959
-5.337857982
-5.31796893474
-5.14137518685
-4.9802145292
-5.71492389035
-6.28005494326
-6.23516394289
-6.66979501385
-7.47655140837
-6.6895445881
-6.63408308717
-6.03960134006
-6.60086842197
-9.10347950332
-10.5862724695
2.92190295658
0.00715609221565
-0.00782006685722
-2.61127326122
0.0607556127951
0.464758032511
0.75279406798
0.60673570864
0.796777851087
0.793348953417
1.16181769955
0.955133295354
1.12107058071
1.04225214724
1.03686632779
0.985759938846
1.0581254978
0.175125285031
0.312174939203
0.10830258539
2.41686499982
-0.578071230385
-1.78585813122
-1.5063055347
-1.78925143636
-1.53821115173
-1.4873179853
-1.57884993438
-1.31591403594
-1.36180218196
-1.56504651468
1.91708927324
1.19438297773
-1.14111004927
-1.6010834144
2.12845363631
1.74735750766
-0.189045872197
-1.62581475955
2.24130233143
2.31289899671
2.05271484369
2.1388901155
2.17866450183
2.24155199342
2.2909245548
2.31211354665
2.20766803016
1.00826552232
-2.21291400409
-2.06369159128
-2.06538643055
2.03681579175
2.16106762559
1.19256555656
2.72137051295
2.64330301669
2.30248112731
-2.78001768809
-1.95605108669
-2.29434583004
-2.97071518845
2.84911205587
2.77289055758
-2.51426049391
-2.30314056908
-2.47092898928
-2.50106646966
-2.62134461364
-2.53792567807
-2.6130561747
-2.4157618513
3.11385918302
4.18017470906
3.43550908519
3.41182045956
4.21215160542
3.1938921
3.38933609378
4.51044224964
3.51186437619
-3.29274794573
-2.61899753826
-3.28591760507
-2.7078864609
2.4746610293
0.0398390225946
0.0668286524214
-3.33558710395
-4.29461636272
0.110316569084
0.0152791390881
4.67600514028
2.21513554075
4.40253751084
-0.226373067387
-3.09318066458
-3.85660631079
-3.92344637547
-3.07004648663
-3.51005806146
-3.9039276643
-4.08290069161
-3.1359902679
-3.10426752244
-3.89416069837
-3.54189097885
3.27412631125
4.19086512678
3.42612459039
3.38155080157
2.84224182719
3.82865000475
3.38758304976
4.23346296058
-0.0835169857749
-0.0037446652493