# vtk DataFile Version 2.0
2D Simulation Python
ASCII
DATASET UNSTRUCTURED_GRID
FIELD FieldData 1
NODES 1 2 int
386 659

POINTS 386 double
0.0 1.0 0.0
1.725 0.9970900523509325 0.0
8.275 1.0029099476490668 0.0
10.0 1.0 0.0
10.0 -4.686520405326192e-18 0.0
0.0 0.0 0.0
0.1916666666663293 1.0021675428285906 0.0
0.3833333333324708 1.0035726576200061 0.0
0.574999999998553 1.0037210985866662 0.0
0.7666666666645966 1.0025606519714372 0.0
0.9583333333312576 1.0004995021125478 0.0
1.149999999998384 0.9982626535730039 0.0
1.341666666665662 0.9966369125090586 0.0
1.533333333332819 0.9961941294751804 0.0
1.92348484848444 0.9990889410685205 0.0
2.121969696968978 1.0014307420366235 0.0
2.320454545453434 1.0032340279265752 0.0
2.518939393937826 1.0038200623784337 0.0
2.717424242422235 1.002968268670078 0.0
2.915909090906411 1.0009992522941003 0.0
3.1143939393908 0.9986541286860158 0.0
3.312878787875129 0.9968155757785044 0.0
3.511363636359531 0.9961756040369938 0.0
3.709848484843827 0.9969750915677873 0.0
3.90833333332816 0.9989131203303832 0.0
4.106818181812215 1.0012602382755418 0.0
4.305303030296804 1.0031330168247332 0.0
4.503787878781365 1.0038265633691124 0.0
4.702272727265711 1.0030798348541021 0.0
4.900757575750005 1.0011738914249508 0.0
5.099242424235156 0.9988261085752189 0.0
5.297727272720327 0.9969201651459954 0.0
5.496212121205663 0.9961734366308903 0.0
5.694696969690998 0.9968669831751809 0.0
5.89318181817668 0.9987397617243331 0.0
6.09166666666213 1.0010868796695043 0.0
6.290151515147423 1.0030249084321476 0.0
6.488636363633031 1.0038243959630047 0.0
6.687121212118713 1.0031844242215355 0.0
6.885606060604342 1.0013458713140388 0.0
7.084090909089381 0.9990007477059496 0.0
7.282575757574369 0.9970317313299479 0.0
7.481060606059355 0.9961799376215668 0.0
7.679545454544343 0.9967659720734088 0.0
7.878030303029329 0.9985692579633565 0.0
8.076515151514705 1.0009110589314694 0.0
8.46666666666447 1.0038058705248154 0.0
8.658333333329285 1.0033630874909691 0.0
8.84999999999549 1.0017373464270634 0.0
9.041666666661694 0.9995004978875361 0.0
9.233333333327899 0.9974393480286294 0.0
9.42499999999549 0.9962789014133488 0.0
9.616666666663775 0.9964273423799788 0.0
9.808333333331985 0.9978324571713925 0.0
10.0 0.7999999999999998 0.0
10.0 0.6000000000013869 0.0
10.0 0.4000000000016644 0.0
10.0 0.2000000000008322 0.0
9.799999999999999 -0.0022493567784086037 0.0
9.6 -0.003639535720290066 0.0
9.399999999999999 -0.0036395357202900548 0.0
9.2 -0.0022493567784085786 0.0
8.999999999999998 3.140916166106852e-17 0.0
8.799999999999997 0.0022493567784086107 0.0
8.599999999999998 0.003639535720290081 0.0
8.399999999999997 0.0036395357202900465 0.0
8.199999999999998 0.0022493567784085903 0.0
7.999999999999997 -3.09405096205357e-17 0.0
7.799999999999997 -0.0022493567784086107 0.0
7.599999999999998 -0.003639535720290081 0.0
7.399999999999997 -0.0036395357202900465 0.0
7.199999999999998 -0.0022493567784085846 0.0
6.999999999999997 3.047185758000315e-17 0.0
6.799999999999997 0.0022493567784086232 0.0
6.599999999999998 0.003639535720290081 0.0
6.399999999999997 0.00363953572029002 0.0
6.199999999999998 0.002249356778408569 0.0
5.999999999999997 -3.00032055394707e-17 0.0
5.799999999999998 -0.0022493567784086206 0.0
5.599999999999998 -0.003639535720290081 0.0
5.399999999999999 -0.0036395357202900556 0.0
5.199999999999998 -0.002249356778408569 0.0
4.999999999999999 1.593890685080071e-17 0.0
4.799999999999999 0.0022493567784085807 0.0
4.599999999999999 0.0036395357202900986 0.0
4.399999999999999 0.00363953572029004 0.0
4.199999999999999 0.0022493567784085725 0.0
3.999999999999999 -1.547025481026785e-17 0.0
3.799999999999999 -0.0022493567784085873 0.0
3.599999999999999 -0.0036395357202900634 0.0
3.399999999999998 -0.00363953572029004 0.0
3.199999999999998 -0.0022493567784085604 0.0
2.999999999999999 1.500160276973535e-17 0.0
2.799999999999998 0.002249356778408613 0.0
2.599999999999998 0.0036395357202901038 0.0
2.399999999999999 0.003639535720290063 0.0
2.199999999999999 0.002249356778408575 0.0
1.999999999999998 -2.4729685715305744e-17 0.0
1.799999999999999 -0.0022493567784086193 0.0
1.6 -0.00363953572029004 0.0
1.4 -0.00363953572029004 0.0
1.199999999999999 -0.0022493567784085586 0.0
0.9999999999999982 2.2561577843756074e-17 0.0
0.7999999999999989 0.0022493567784086193 0.0
0.6000000000000014 0.0036395357202900483 0.0
0.3999999999999986 0.0036395357202900483 0.0
0.1999999999999993 0.0022493567784085747 0.0
0.0 0.1999999999995579 0.0
0.0 0.3999999999989749 0.0
0.0 0.5999999999989468 0.0
0.0 0.7999999999994734 0.0
0.6588466721814987 0.553298208558391 0.0
9.34115279945551 0.5386401360253783 0.0
8.741432843887328 0.573722039741411 0.0
1.2585641980528162 0.5612015626533662 0.0
8.16284145008521 0.5766697196538652 0.0
1.8371433498595586 0.5689372252601628 0.0
2.430441360810761 0.6060093622585284 0.0
7.569477443381712 0.5896005951563247 0.0
3.0304922464467405 0.6013842726689052 0.0
6.969026184835931 0.6010612315538099 0.0
3.6286638988554265 0.5935744876123771 0.0
6.36798266986549 0.5979434236531892 0.0
4.229400771730992 0.5966603649019389 0.0
5.795134235633899 0.5214858473395875 0.0
4.802478518888082 0.5330636171300792 0.0
5.298820266747793 0.5116750976019361 0.0
9.677454509475712 0.6943157593080092 0.0
0.32254534915249944 0.7066981200360543 0.0
4.530525394782753 0.3457452774240557 0.0
3.9188227626473298 0.37036675350939374 0.0
6.067964737187019 0.3393161915656081 0.0
3.3194115857725617 0.37079119596439347 0.0
6.679655353684224 0.377665467775844 0.0
7.878986044459108 0.36475631599652275 0.0
2.120982398973796 0.37010679169764993 0.0
2.720110294915368 0.38128244606792383 0.0
7.279714263250285 0.3691635299740629 0.0
9.037270241724084 0.6716283405972577 0.0
0.9627286494988941 0.6734520330026987 0.0
1.5320838479100805 0.35349791033603084 0.0
8.46791022051549 0.36719302696336803 0.0
8.458294142765725 0.6875963578212951 0.0
1.541700168315862 0.6724068692848 0.0
0.979399867554623 0.36596052942010265 0.0
9.020598892079175 0.3646870029387247 0.0
4.527199775139097 0.6983566241364142 0.0
3.9214025971244415 0.6997792930211365 0.0
6.069685660351198 0.6914255410304022 0.0
2.1183770002355993 0.6948573318980681 0.0
7.881594499751747 0.6889673595404024 0.0
3.323361153143373 0.6983139355957259 0.0
6.675556617933197 0.7080048515685241 0.0
2.7253711643050464 0.7101563766597907 0.0
7.274462755599654 0.6973656827896635 0.0
0.3328395781183922 0.30952267952525697 0.0
9.667160267573353 0.2977424082261647 0.0
5.58132421999473 0.3127618507375916 0.0
5.017220607394668 0.320524221938501 0.0
5.509457727605247 0.6855370080455893 0.0
5.087392122020339 0.6916454511929063 0.0
0.6619005094038287 0.7418833917990465 0.0
9.338099094700613 0.7292240547013101 0.0
8.747624310927769 0.7452239363613556 0.0
1.2523735192749172 0.7348719809024677 0.0
8.670387985264357 0.28161966969981717 0.0
1.3296091197964484 0.27058226598244106 0.0
0.6804015937640856 0.2426750671278244 0.0
9.319598013560048 0.23117438264573542 0.0
8.16990799688971 0.7483688787845899 0.0
1.8300810440248192 0.7414107651609695 0.0
8.082241617209048 0.27951753996410755 0.0
1.917743131787137 0.27675865482583145 0.0
7.485180592122255 0.27885222761303635 0.0
2.5147355678632053 0.2922886980203467 0.0
6.8851609635141084 0.287984610672937 0.0
3.1144048681941205 0.2857080179238177 0.0
6.28493523134033 0.27564701934074076 0.0
3.713789043971094 0.2812497338129262 0.0
2.422449309133316 0.8179993723276445 0.0
7.577503963946286 0.806123156625884 0.0
3.0216051109839337 0.8144785949760863 0.0
6.978106160435943 0.8142765299514033 0.0
3.618459649307468 0.8087142863254128 0.0
6.379474968962098 0.8151098408869164 0.0
4.216884897074993 0.8137400809389393 0.0
5.793598400131326 0.839207067324836 0.0
4.802574982300593 0.8463524966835351 0.0
5.299579324209004 0.18055895711313039 0.0
4.313878968233199 0.2768401880841556 0.0
4.743204933913653 0.24283295944571429 0.0
5.855724986018993 0.2346115885390668 0.0
5.298372066438471 0.7105364219815357 0.0
0.19483726776506102 0.5067304659708144 0.0
9.805162635633858 0.4975366853381236 0.0
9.486963243157792 0.15683997723455265 0.0
0.5130365845923917 0.16784481932900153 0.0
9.56892552116109 0.5043257963871418 0.0
0.43107421503196275 0.5200938979672355 0.0
9.50913863593328 0.8305442576101763 0.0
0.49086120529627203 0.8421590470518111 0.0
9.82368471668105 0.8244143784132467 0.0
0.17631523677726452 0.8310647846291588 0.0
7.690675621640304 0.18826932603259255 0.0
2.3092909760630738 0.1971605267594815 0.0
8.876663735255399 0.1938421088313739 0.0
1.123335073318043 0.18978090145914916 0.0
7.090880438805783 0.1933123257742757 0.0
2.9089430480620164 0.19707460828059956 0.0
6.4910762515565015 0.19474753001681494 0.0
3.50853232670712 0.19027645859087852 0.0
1.7133214029632395 0.18428365042108133 0.0
8.28667245241422 0.19199216439264993 0.0
4.108122729067284 0.1917966684652478 0.0
8.577560101804487 0.834191443307243 0.0
1.4224373956545864 0.8229777590024845 0.0
8.923332976649034 0.8277997404991544 0.0
1.0766660706070776 0.8248000739311158 0.0
0.8418681022797094 0.8277989081117935 0.0
9.158131416716618 0.8220203581835948 0.0
8.345850371694505 0.8347208200672028 0.0
1.654144790084391 0.8247117235943133 0.0
5.592449090365113 0.49484373137628096 0.0
5.005265140555643 0.5037949312766934 0.0
7.789405108093337 0.8358976425656579 0.0
2.210572817839163 0.8428936426781752 0.0
7.776865076958901 0.5464037230025929 0.0
2.223088673449199 0.5575579160908436 0.0
2.815276574434346 0.8480119048196673 0.0
7.184590602249028 0.8410103647524895 0.0
3.4120552053407422 0.8394054830104505 0.0
6.587034817282085 0.8479294637157867 0.0
4.00920233506024 0.8427436327130826 0.0
5.984832283929991 0.8426072066254201 0.0
4.611344717677907 0.8486913558613456 0.0
7.1751661633184405 0.5550070609060123 0.0
2.8245670238943124 0.5651947794400005 0.0
6.575204015927029 0.5626871497614792 0.0
3.4230889069844133 0.5528537714649684 0.0
5.978030920087834 0.5299010809792711 0.0
4.02240800648217 0.5556255362644854 0.0
4.619575537839405 0.5397843516926002 0.0
[...]
POINT_DATA 386
VECTORS vector double
1.0 0.0 0.0
0.0 0.0 0.0
0.0 0.0 0.0
0.0 0.0 0.0
0.0 0.0 0.0
1.0 0.0 0.0
0.0 0.0 0.0
0.0 0.0 0.0
0.0 0.0 0.0
0.0 0.0 0.0
0.0 0.0 0.0
0.0 0.0 0.0
0.0 0.0 0.0
0.0 0.0 0.0
0.0 0.0 0.0
0.0 0.0 0.0
0.0 0.0 0.0
0.0 0.0 0.0
0.0 0.0 0.0
0.0 0.0 0.0
0.0 0.0 0.0
0.0 0.0 0.0
0.0 0.0 0.0
0.0 0.0 0.0
0.0 0.0 0.0
0.0 0.0 0.0
0.0 0.0 0.0
0.0 0.0 0.0
0.0 0.0 0.0
0.0 0.0 0.0
0.0 0.0 0.0
0.0 0.0 0.0
0.0 0.0 0.0
0.0 0.0 0.0
0.0 0.0 0.0
0.0 0.0 0.0
0.0 0.0 0.0
0.0 0.0 0.0
0.0 0.0 0.0
0.0 0.0 0.0
0.0 0.0 0.0
0.0 0.0 0.0
0.0 0.0 0.0
0.0 0.0 0.0
0.0 0.0 0.0
0.0 0.0 0.0
0.0 0.0 0.0
0.0 0.0 0.0
0.0 0.0 0.0
0.0 0.0 0.0
0.0 0.0 0.0
0.0 0.0 0.0
0.0 0.0 0.0
0.0 0.0 0.0
0.901030201335 0.0967114218961 0.0
1.40008813015 0.00313917377412 0.0
1.42360897639 -0.00642745453977 0.0
1.00579195157 -0.0871628815141 0.0
0.0 0.0 0.0
0.0 0.0 0.0
0.0 0.0 0.0
0.0 0.0 0.0
0.0 0.0 0.0
0.0 0.0 0.0
0.0 0.0 0.0
0.0 0.0 0.0
0.0 0.0 0.0
0.0 0.0 0.0
0.0 0.0 0.0
0.0 0.0 0.0
0.0 0.0 0.0
0.0 0.0 0.0
0.0 0.0 0.0
0.0 0.0 0.0
0.0 0.0 0.0
0.0 0.0 0.0
0.0 0.0 0.0
0.0 0.0 0.0
0.0 0.0 0.0
0.0 0.0 0.0
0.0 0.0 0.0
0.0 0.0 0.0
0.0 0.0 0.0
0.0 0.0 0.0
0.0 0.0 0.0
0.0 0.0 0.0
0.0 0.0 0.0
0.0 0.0 0.0
0.0 0.0 0.0
0.0 0.0 0.0
0.0 0.0 0.0
0.0 0.0 0.0
0.0 0.0 0.0
0.0 0.0 0.0
0.0 0.0 0.0
0.0 0.0 0.0
0.0 0.0 0.0
0.0 0.0 0.0
0.0 0.0 0.0
0.0 0.0 0.0
0.0 0.0 0.0
0.0 0.0 0.0
0.0 0.0 0.0
0.0 0.0 0.0
0.0 0.0 0.0
0.0 0.0 0.0
0.0 0.0 0.0
1.0 0.0 0.0
1.0 0.0 0.0
1.0 0.0 0.0
1.0 0.0 0.0
1.23621910653 -0.0389869531183 0.0
1.46218310681 -0.0359983708811 0.0
1.44042367642 -0.0108248147258 0.0
1.35530698339 -0.0278032151342 0.0
1.43790839663 0.0275524898524 0.0
1.40993622092 0.0254388367862 0.0
1.3880598695 0.0160323892053 0.0
1.42496187667 -0.00376354373673 0.0
1.40295536242 -0.0267006254889 0.0
1.40674759593 -0.0211479426351 0.0
1.42279668707 -0.00252371417203 0.0
1.40621642439 0.0187086412717 0.0
1.40802128623 0.0199468855534 0.0
1.45680194417 0.0179963970092 0.0
1.45750981718 -0.016257693096 0.0
1.49899244076 -0.016772579967 0.0
1.27389935625 -0.000516335167904 0.0
1.1030285934 -0.0877954349597 0.0
1.34103472267 0.0140594047483 0.0
1.3627683133 0.0215449853281 0.0
1.30794531466 0.0218550330329 0.0
1.36138372262 -0.0207363775993 0.0
1.38518439225 -0.00612811434245 0.0
1.35457855677 0.0223006589416 0.0
1.37217656746 0.0422306941309 0.0
1.39544556106 -0.00690159360575 0.0
1.36394258803 -0.0263044082782 0.0
1.31573859787 -0.035594220904 0.0
1.23727959991 -0.0543284296855 0.0
1.34176730693 0.024381731154 0.0
1.37327098439 0.0127803025275 0.0
1.28730805663 0.00918412949897 0.0
1.28826612032 0.000145244610523 0.0
1.34581914868 -0.00669794628714 0.0
1.37931460776 -0.0390963552191 0.0
1.2432631712 -0.00184461912331 0.0
1.2453418788 0.0269220571884 0.0
1.26879024671 0.0327899170087 0.0
1.24821371689 0.0380573196094 0.0
1.28139614617 0.0195963075683 0.0
1.24961247244 -0.0229818511378 0.0
1.22407870196 -0.00964655327838 0.0
1.21245952447 -0.00917883450871 0.0
1.25216005499 -0.0281212015033 0.0
1.16660705371 0.121690491562 0.0
1.28308028103 -0.0180680367181 0.0
1.25879073938 0.0037434998888 0.0
1.28179987384 -0.027231325236 0.0
1.25055830625 0.0222877827843 0.0
1.23199822154 -0.0521180245521 0.0
1.14223944351 -0.0704219467588 0.0
1.20016222166 -0.0354225139743 0.0
1.1588180054 -0.0141822880511 0.0
1.14880209135 -0.0417156180877 0.0
1.20457528956 -0.000396852873537 0.0
1.21585626229 -0.00640534010986 0.0
1.22630967222 0.019181764691 0.0
1.1101402136 -0.034351237399 0.0
1.15564796017 0.0283515302631 0.0
1.1544431455 0.0222935169958 0.0
1.1953793021 0.0394995389516 0.0
1.20519817444 0.0277456710405 0.0
1.18708933383 -0.00323467405768 0.0
1.23768949833 0.00899777027711 0.0
1.21476581874 -0.0163502194469 0.0
1.21014072848 -0.04084429864 0.0
1.19354309023 0.0312992126606 0.0
1.19235663869 -0.00163807261083 0.0
0.935939543977 0.0107486816226 0.0
0.915837797621 -0.000697212760165 0.0
0.935094966814 -0.0240837855264 0.0
0.940370512483 -0.0232352799451 0.0
0.9060899088 0.000147792447216 0.0
0.949760778155 0.0147536811525 0.0
0.930498336282 0.0212912704977 0.0
0.81159048838 0.0157752142347 0.0
0.83175339118 -0.0141250226914 0.0
0.938257114815 -0.015354323275 0.0
1.19909008178 0.0224561166357 0.0
1.00355864022 -0.0436565898051 0.0
0.998585032355 0.0376950673428 0.0
1.12300663984 -0.0143756426825 0.0
1.01286113565 0.00446315077875 0.0
1.47560034504 -0.0100801662887 0.0
0.866926644558 -0.0119548747156 0.0
1.06442116536 0.0759539882547 0.0
1.48360166693 -0.0206150602337 0.0
1.13594150514 -0.00938947076235 0.0
0.783042675197 -0.0165141734859 0.0
1.0414026312 -0.0601997607184 0.0
0.759764475451 -0.048009598567 0.0
1.11632598441 -0.144309269756 0.0
0.955734744024 0.000523156086938 0.0
0.959189654643 0.0365692367986 0.0
0.917263123581 -0.0336651367131 0.0
1.04093628766 -0.000601634803375 0.0
0.939514017423 -0.0355088139812 0.0
0.942004472297 -0.0139449619341 0.0
0.923993695714 -0.00199761745887 0.0
0.960272090107 0.00151227094065 0.0
0.995540226899 0.031354496765 0.0
0.924254454412 0.0128701058376 0.0
0.947469437723 0.0363512974561 0.0
0.866745231811 -0.00529638780838 0.0
0.838615616308 -0.00912991332044 0.0
0.874414094718 -0.0127242328836 0.0
0.894754990183 -0.0533004030295 0.0
0.945692883247 -0.042797512147 0.0
0.864355894274 -0.0410163408946 0.0
0.85554560465 0.0248665346676 0.0
0.825507932297 -0.00767021813083 0.0
1.46240040114 -0.0101409428657 0.0
1.46539575395 -0.00988835279268 0.0
0.785698336173 0.00970861475483 0.0
0.810290186153 0.0263677888201 0.0
1.48592927267 0.0196529725521 0.0
1.45965569445 0.0287525460693 0.0
0.822125052093 -0.0167596116773 0.0
0.810860703945 -0.0213103559806 0.0
0.786394962395 -0.0180236917044 0.0
0.830900975311 0.00223963273344 0.0
0.791144933081 0.0204667144914 0.0
0.818918839534 0.0282871796406 0.0
0.832205695262 -0.00604472762409 0.0
1.47935007502 -0.0224244290548 0.0
1.46989001557 -0.0257839751038 0.0
1.47490873026 0.010483881426 0.0
1.48043295041 -0.0228518404911 0.0
1.47159597805 0.0251076930558 0.0
1.47866633309 0.0174859046261 0.0
1.47684123737 -0.00787684820918 0.0
1.47644877918 -0.00116464222247 0.0
1.41268146055 0.000469608502918 0.0
1.35138049969 -0.0355699285091 0.0
1.31552012533 -0.0358151201048 0.0
1.48635177761 -0.029695834401 0.0
1.4833354943 -0.0466963313987 0.0
1.46384443701 0.0127036736967 0.0
1.44224082117 0.0194035482043 0.0
1.4917504811 0.0185905166892 0.0
1.44750377658 0.041602130673 0.0
1.47221705038 0.0218761961486 0.0
1.46151076219 0.0269621532834 0.0
1.45937262964 0.0252021836191 0.0
1.45886755149 -0.0152787667641 0.0
1.45694147082 -0.0268443230852 0.0
1.44750558299 0.0129370334915 0.0
1.46014125205 -0.0305766979742 0.0
0.817879073317 0.00774985596486 0.0
0.774340216603 0.0196614566987 0.0
0.821531203147 0.0254535101963 0.0
0.826809479569 0.0396294193425 0.0
0.829568970994 0.00534095544782 0.0
0.803822838931 -0.0207925752879 0.0
0.826835436212 -0.0152735253562 0.0
0.82358324139 0.000647769486775 0.0
0.791875843813 -0.0189828054944 0.0
0.897789978708 0.0318422687182 0.0
0.922814207823 -0.0456179418152 0.0
1.1683527806 0.177843801115 0.0
0.884452200387 -0.0136182175553 0.0
0.897971500239 -0.0214216706043 0.0
1.03605656638 -0.0208037458469 0.0
1.33821940414 -0.0402248620479 0.0
1.18100278106 -0.0821293613209 0.0
0.921447246689 0.00115687536186 0.0
0.803044097156 0.0188359348896 0.0
0.850621470873 0.0301521250624 0.0
0.869609387831 0.0228157918938 0.0
0.793920584254 0.0452523541603 0.0
0.77645433769 -0.0105790078859 0.0
0.848865028362 -0.0122913998968 0.0
0.829628903476 -0.0126563469716 0.0
0.81630308247 -0.00142264257491 0.0
0.853651420451 -0.0266447807166 0.0
1.41343627422 -0.0224803806543 0.0
1.35857483684 -0.00861589741674 0.0
0.862975808154 0.0111646091375 0.0
1.41331689468 0.0316944516197 0.0
1.38880084143 0.0295312640749 0.0
0.894404402482 -0.0233949144876 0.0
0.847708646035 0.113472511909 0.0
1.43087494005 0.0260308173147 0.0
1.41077139573 0.011457662895 0.0
0.816387489741 -0.0251307692418 0.0
0.905283251485 -0.00280292178495 0.0
1.43385100167 -0.0296703912429 0.0
1.42390035339 -0.0235513836106 0.0
1.42631596783 0.0215913583318 0.0
1.41465744352 -0.0132432528102 0.0
0.832270792863 0.0017675155222 0.0
1.41957617652 0.0195497843897 0.0
1.34134434604 0.036606115708 0.0
1.37514546992 -0.0509152335327 0.0
1.28060637666 0.00944691405742 0.0
1.2648728783 -0.0313047290315 0.0
1.25486845902 -0.0105470520041 0.0
1.25694351724 0.0335124867069 0.0
1.29071231713 0.0247851662917 0.0
1.28393389927 0.00372828298681 0.0
1.23099870905 0.0340666607713 0.0
1.2468178166 -0.000256843353607 0.0
1.27898767819 -0.0083528755402 0.0
1.23806688248 -0.0144510448904 0.0
1.25834665887 -0.035550866524 0.0
1.2920425145 -0.0334774073943 0.0
1.24197874027 -0.0438284729959 0.0
1.25496284311 0.0093173572993 0.0
1.27148365647 0.0245723157063 0.0
1.2921155945 0.0364802328433 0.0
1.28036242356 0.0196029647255 0.0
1.28298129219 0.0141878916571 0.0
1.21470925448 -0.0736567895358 0.0
1.32266975689 -0.0305872718447 0.0
1.27468793584 0.00762502491487 0.0
1.26435731732 0.0303519928166 0.0
1.25458369678 -0.0365169345646 0.0
1.24406071972 -0.0106920852253 0.0
1.26887203222 0.0580965650219 0.0
1.35897295842 -0.0240911827807 0.0
1.22534344186 -0.00325635216341 0.0
1.28159404677 -0.0117224621001 0.0
1.34598973923 -0.0211400982438 0.0
1.35562464851 -0.0115000917829 0.0
0.843477221187 -0.14208018671 0.0
1.31533568003 -0.00426675976644 0.0
1.28098215654 -0.00530216035378 0.0
1.48305550701 -0.0236635735162 0.0
1.48508834494 -0.00519387631935 0.0
1.31573968672 0.00108146257532 0.0
1.03236935834 0.0993158425476 0.0
0.758385114188 -0.0111390165938 0.0
1.09951252347 0.164995461902 0.0
1.01407281856 -0.0874339988103 0.0
1.2979069078 3.31211164499e-06 0.0
1.36591834205 -0.0360948519684 0.0
1.29760733732 0.00537809989069 0.0
1.46035766314 -0.015272037194 0.0
1.39187230456 0.0161317166899 0.0
0.857894616703 0.0865200383519 0.0
0.643792150728 0.0340721856866 0.0
1.11255678256 -0.117060752559 0.0
0.819043161308 -0.0795545123061 0.0
1.452529661 0.0193253596847 0.0
1.43178737823 0.0524836961961 0.0
0.639277196528 0.0469384810253 0.0
0.714370006276 0.0119018181838 0.0
0.627771226506 -0.00353799869861 0.0
1.46606952803 0.0254942366466 0.0
1.45868586389 -0.0267198453688 0.0
1.45413784973 -0.0218771179575 0.0
1.42248695689 0.030636514799 0.0
1.46408961592 -0.0159405578495 0.0
1.46822583396 -0.0338117528308 0.0
1.46082144355 0.0222955306399 0.0
1.46065658503 0.0249560732661 0.0
0.671407825891 -0.0175180840692 0.0
0.650851449822 -0.0298493449724 0.0
1.46777722837 0.0232487258684 0.0
0.658839067756 0.0247532276307 0.0
0.705986838614 -0.0138736663779 0.0
0.734347575021 0.0334981682845 0.0
0.671303877292 0.0154792471826 0.0
0.830780527341 -0.0307073890209 0.0
0.624629784672 -0.0436382508053 0.0
0.693424646559 -0.00650447584797 0.0
0.674941646403 -0.0333940707631 0.0
0.795506037697 0.0177230008674 0.0
0.633417569062 -0.0272860291482 0.0
0.649874829746 0.0263827052885 0.0
0.620884752244 0.00860030654055 0.0
0.475622994208 0.0303005318685 0.0
1.12341130327 -0.0721710866534 0.0
0.753913782354 -0.0138603940123 0.0
0.637047989183 0.00475054504719 0.0

SCALARS scalar1 double
LOOKUP_TABLE default
2.3426273782
5.06930765071
5.70998681607
4.95132079218
-6.11629601772
-2.54850594788
10.5433614121
9.92921535821
7.84064107636
7.00236015236
6.00540466691
5.60929694281
5.37074128066
5.01911412816
5.34103507827
5.47733687566
5.68262434617
5.92213450693
5.95411261803
5.78783417855
5.52565199981
5.25297180749
5.16077972076
5.12719878685
5.19847049157
5.51349948515
5.6127727328
5.94567948742
6.09831879461
5.74102654897
6.9235853379
3.92030347748
6.62860230151
5.2510876528
5.60936306388
5.68478774654
5.65777226909
5.90531618528
5.94146644511
5.78034814343
5.58347473571
5.27802529268
5.16741329867
5.07936865953
5.11607216135
5.68827442859
5.67941142623
6.02707445083
5.89895831451
5.39445953431
5.06711383057
4.78689011709
5.2160236048
4.64298244462
3.68400162606
1.31517666113
-0.987191159524
-3.10190589097
-6.62166511293
-6.64742585868
-5.98816750881
-5.4698640622
-5.44306517605
-4.93943174332
-5.30250131443
-5.35973103786
-5.36668826803
-5.85564817314
-5.87758323436
-5.84845051573
-6.15747116785
-5.73936985219
-5.1885552984
-5.3479940672
-5.40144188406
-5.03639958569
-5.38985251672
-7.1325554411
-4.96487654173
-6.08216368132
-5.92682170104
-5.79676270896
-5.70156159006
-4.52110945715
-6.49801766516
-5.29237700562
-5.1987040926
-5.88864960572
-6.19165257674
-5.82241533911
-5.83813614035
-5.79035278582
-5.32484304979
-5.38764899162
-5.28520051174
-5.12020267193
-5.80146108317
-6.3009662115
-6.17431638968
-6.54044440709
-7.26516829877
-6.55653723802
-6.62285670832
-6.14899998516
-6.79931565801
-9.4045821686
-10.8258261607
2.87446696839
-0.0118559276023
-0.00710163790015
-2.74352995677
0.0760655628205
0.52342908117
0.802431829519
0.609934230265
0.840523232915
0.792712364499
1.14190158713
1.0398668306
1.1411494946
1.11375243328
1.08478190924
1.03625670188
1.07144694392
0.232723997552
0.365473534511
0.173103226474
2.49205604543
-0.614754697049
-1.8271364139
-1.48636633447
-1.77183036686
-1.48861177323
-1.49902053895
-1.5303134617
-1.3365815552
-1.39213098111
-1.50804924872
1.95253933574
1.17966527259
-1.09311581107
-1.62469206337
2.10675910036
1.80647090051
-0.186098578822
-1.60234493825
2.20384015291
2.36751944367
2.09425741592
2.12834104561
2.24932119934
2.29430200479
2.26835784049
2.26044587822
2.27450015371
0.959282227527
-2.15134572842
-2.00019372033
-2.04862406935
2.13553924432
2.214866313
1.10907902037
2.78070861844
2.60299105682
2.34374762832
-2.83943589753
-1.90696445367
-2.39218047333
-2.93673334481
2.8306539752
2.81895584241
-2.53058866625
-2.2668929322
-2.41104280219
-2.56621541389
-2.6524010759
-2.53371813648
-2.67042869017
-2.35565978688
3.18480864554
4.07313929984
3.39689326548
3.36968382194
4.12295796413
3.25175144581
3.44149188517
4.43391941391
3.51582641652
-3.3869645556
-2.66556720014
-3.29190799995
-2.71801147552
2.48477536093
0.0501260780562
0.108810949886
-3.44670025773
-4.11030008872
0.15901602001
0.0389192028802
4.5230401222
2.37036408106
4.3465323859
-0.255473285379
-3.15667213387
-3.78381407658
-3.93402819284
-3.13155471686
-3.57448525038
-3.91998503677
-4.03746303096
-3.19749841828
-3.13106404856
-3.84758172713
-3.50959417144
3.32589524787
4.06667500429
3.4132669904
3.32460363221
2.85877457994
3.74045944285
3.45058635832
4.16515500715
-0.0276884889283
0.0498557343255
4.28011135749
3.62364258616
0.518040318783
0.628828253986
3.48457403632
4.04493715854
4.40775816843
3.47325410041
4.08024845496
4.12554864294
3.45892262508
0.610291728896
0.719361114362
0.632705265941
0.619110709256
0.302991039728
0.60261135677
0.430566910789
0.505903050041
0.476359307256
0.319863264038
0.208641623753
0.370760514924
0.281242001308
0.58743986435
0.436540874976
0.451910889291
0.579637456922
0.524789292939
0.652145705878
0.502358148932
0.695683673226
0.730331311974
0.776821367586
0.655446010535
3.50594144939
4.31022148495
3.76071734392
3.8744915485
4.02986081626
4.10019765945
3.49024642033
3.43810456249
4.34938949493
-3.67648960492
-3.1633709183
0.162451552107
-3.59145433282
-3.67728567274
-3.55512344843
1.95182261737
-0.191378304904
-3.42700552244
-4.5121917322
-3.70444761652
-3.84562223845
-4.15095036425
-4.77259746421
-3.61981134973
-4.56889650119
-4.40436896707
-3.62197818086
-1.24572038173
-0.25985589599
-3.50431210936
-1.20719734245
-0.896939445463
-3.65593436388
3.902973057
-0.907072116669
-1.13100936368
4.520020687
-3.33328175655
-0.987140450818
-1.08222690819
-1.11400995539
-1.10828470095
3.75177597427
-1.10758464124
-1.6140800628
-1.55632204583
2.00403220337
1.65026577897
2.1776088405
2.30205601848
2.02404352583
2.44773293902
2.19702784785
2.16933721383
2.31877855585
2.29183070879
2.25562640549
1.89293949499
1.25644634261
2.20780433326
1.99205260541
2.05595080555
1.72876478448
2.02403256893
0.887083528985
1.80740493463
2.53721933388
2.18055639929
2.29776998569
2.31147322449
0.496027313488
-1.69736209831
2.18502825406
2.30813210108
-1.43358095432
-1.41791427806
3.93603231718
1.98577738744
2.10786485671
0.690390369273
0.65240047815
-2.04224093854
1.51133379313
-3.94901494163
-4.17592133957
-0.964550835356
2.30225677782
-1.56420817605
0.191415364094
-0.793264900809
-0.211999821706
-3.85303941789
4.88864796521
3.27862945176
-4.8253680636
-0.786385682506
-0.582278392263
-4.65020540463
-3.83432442912
-4.72598700886
-0.492565335622
-0.700705591997
-1.07563105916
-1.20120259103
-0.614520312517
-0.607226104541
-0.713530807862
-0.76948306702
-4.18533672445
-4.57222049677
-0.751251668953
-4.82273032683
-3.80374672563
-4.14117642812
-4.35650269475
3.70878220475
4.65586649191
3.90370305842
4.47690958892
-4.08248106899
-4.9304587893
4.1844575208
4.63836292201
4.55859387656
1.08488293986
-5.21773608963
-4.01984046097

SCALARS scalar2 double
LOOKUP_TABLE default
2.3426273782
5.06930765071
5.70998681607
4.95132079218
-6.11629601772
-2.54850594788
10.5433614121
9.92921535821
7.84064107636
7.00236015236
6.00540466691
5.60929694281
5.37074128066
5.01911412816
5.34103507827
5.47733687566
5.68262434617
5.92213450693
5.95411261803
5.78783417855
5.52565199981
5.25297180749
5.16077972076
5.12719878685
5.19847049157
5.51349948515
5.6127727328
5.94567948742
6.09831879461
5.74102654897
6.9235853379
3.92030347748
6.62860230151
5.2510876528
5.60936306388
5.68478774654
5.65777226909
5.90531618528
5.94146644511
5.78034814343
5.58347473571
5.27802529268
5.16741329867
5.07936865953
5.11607216135
5.68827442859
5.67941142623
6.02707445083
5.89895831451
5.39445953431
5.06711383057
4.78689011709
5.2160236048
4.64298244462
3.68400162606
1.31517666113
-0.987191159524
-3.10190589097
-6.62166511293
-6.64742585868
-5.98816750881
-5.4698640622
-5.44306517605
-4.93943174332
-5.30250131443
-5.35973103786
-5.36668826803
-5.85564817314
-5.87758323436
-5.84845051573
-6.15747116785
-5.73936985219
-5.1885552984
-5.3479940672
-5.40144188406
-5.03639958569
-5.38985251672
-7.1325554411
-4.96487654173
-6.08216368132
-5.92682170104
-5.79676270896
-5.70156159006
-4.52110945715
-6.49801766516
-5.29237700562
-5.1987040926
-5.88864960572
-6.19165257674
-5.82241533911
-5.83813614035
-5.79035278582
-5.32484304979
-5.38764899162
-5.28520051174
-5.12020267193
-5.80146108317
-6.3009662115
-6.17431638968
-6.54044440709
-7.26516829877
-6.55653723802
-6.62285670832
-6.14899998516
-6.79931565801
-9.4045821686
-10.8258261607
2.87446696839
-0.0118559276023
-0.00710163790015
-2.74352995677
0.0760655628205
0.52342908117
0.802431829519
0.609934230265
0.840523232915
0.792712364499
1.14190158713
1.0398668306
1.1411494946
1.11375243328
1.08478190924
1.03625670188
1.07144694392
0.232723997552
0.365473534511
0.173103226474
2.49205604543
-0.614754697049
-1.8271364139
-1.48636633447
-1.77183036686
-1.48861177323
-1.49902053895
-1.5303134617
-1.3365815552
-1.39213098111
-1.50804924872
1.95253933574
1.17966527259
-1.09311581107
-1.62469206337
2.10675910036
1.80647090051
-0.186098578822
-1.60234493825
2.20384015291
2.36751944367
2.09425741592
2.12834104561
2.24932119934
2.29430200479
2.26835784049
2.26044587822
2.27450015371
0.959282227527
-2.15134572842
-2.00019372033
-2.04862406935
2.13553924432
2.214866313
1.10907902037
2.78070861844
2.60299105682
2.34374762832
-2.83943589753
-1.90696445367
-2.39218047333
-2.93673334481
2.8306539752
2.81895584241
-2.53058866625
-2.2668929322
-2.41104280219
-2.56621541389
-2.6524010759
-2.53371813648
-2.67042869017
-2.35565978688
3.18480864554
4.07313929984
3.39689326548
3.36968382194
4.12295796413
3.25175144581
3.44149188517
4.43391941391
3.51582641652
-3.3869645556
-2.66556720014
-3.29190799995
-2.71801147552
2.48477536093
0.0501260780562
0.108810949886
-3.44670025773
-4.11030008872
0.15901602001
0.0389192028802
4.5230401222
2.37036408106
4.3465323859
-0.255473285379
-3.15667213387
-3.78381407658
-3.93402819284
-3.13155471686
-3.57448525038
-3.91998503677
-4.03746303096
-3.19749841828
-3.13106404856
-3.84758172713
-3.50959417144
3.32589524787
4.06667500429
3.4132669904
3.32460363221
2.85877457994
3.74045944285
3.45058635832
4.16515500715
-0.0276884889283