# vtk DataFile Version 2.0
2D Simulation Python
ASCII
DATASET UNSTRUCTURED_GRID
FIELD FieldData 1
NODES 1 2 int
386 659

POINTS 386 double
0.0 1.0 0.0
1.725 0.9646817582399757 0.0
8.275 1.0353182417600242 0.0
10.0 1.0 0.0
10.0 -5.688063176726371e-17 0.0
0.0 0.0 0.0
0.1916666666663293 1.0263076216061517 0.0
0.3833333333324708 1.0433615998519974 0.0
0.574999999998553 1.0451632384310907 0.0
0.7666666666645966 1.0310788152561847 0.0
0.9583333333312576 1.006062492696824 0.0
1.149999999998384 0.978913702743319 0.0
1.341666666665662 0.9591819677226014 0.0
1.533333333332819 0.9538078785211221 0.0
1.92348484848444 0.9889424128953204 0.0
2.121969696968978 1.0173650179452327 0.0
2.320454545453434 1.0392516271576657 0.0
2.518939393937826 1.0463643690164646 0.0
2.717424242422235 1.0360260881435839 0.0
2.915909090906411 1.012127996224801 0.0
3.1143939393908 0.9836650640569377 0.0
3.312878787875129 0.9613504165419262 0.0
3.511363636359531 0.9535830339591048 0.0
3.709848484843827 0.9632864710315059 0.0
3.90833333332816 0.9868084640808349 0.0
4.106818181812215 1.015295601659737 0.0
4.305303030296804 1.0380256482241783 0.0
4.503787878781365 1.0464432720030847 0.0
4.702272727265711 1.0373801748608886 0.0
4.900757575750005 1.0142476037875543 0.0
5.099242424235156 0.985752396214507 0.0
5.297727272720327 0.9626198251403205 0.0
5.496212121205663 0.9535567279969378 0.0
5.694696969690998 0.9619743517747997 0.0
5.89318181817668 0.9847043983387331 0.0
6.09166666666213 1.0131915359178063 0.0
6.290151515147423 1.036713528967712 0.0
6.488636363633031 1.0464169660408567 0.0
6.687121212118713 1.0386495834585723 0.0
6.885606060604342 1.0163349359437257 0.0
7.084090909089381 0.9878720037757911 0.0
7.282575757574369 0.9639739118567288 0.0
7.481060606059355 0.9536356309835596 0.0
7.679545454544343 0.9607483728421606 0.0
7.878030303029329 0.9826349820545379 0.0
8.076515151514705 1.0110575871045586 0.0
8.46666666666447 1.0461921214788368 0.0
8.658333333329285 1.0408180322777505 0.0
8.84999999999549 1.0210862972574775 0.0
9.041666666661694 0.9939375073041957 0.0
9.233333333327899 0.9689211847446285 0.0
9.42499999999549 0.9548367615691122 0.0
9.616666666663775 0.9566384001478062 0.0
9.808333333331985 0.9736923783936458 0.0
10.0 0.7999999999999998 0.0
10.0 0.6000000000013869 0.0
10.0 0.4000000000016644 0.0
10.0 0.2000000000008322 0.0
9.799999999999999 -0.0273006033389826 0.0
9.6 -0.044173304115852435 0.0
9.399999999999999 -0.044173304115852345 0.0
9.2 -0.027300603338982238 0.0
8.999999999999998 3.8121523092725105e-16 0.0
8.799999999999997 0.027300603338982855 0.0
8.599999999999998 0.04417330411585253 0.0
8.399999999999997 0.04417330411585225 0.0
8.199999999999998 0.02730060333898211 0.0
7.999999999999997 -3.755271677505246e-16 0.0
7.799999999999997 -0.027300603338982855 0.0
7.599999999999998 -0.04417330411585253 0.0
7.399999999999997 -0.04417330411585225 0.0
7.199999999999998 -0.02730060333898225 0.0
6.999999999999997 3.6983910457379825e-16 0.0
6.799999999999997 0.02730060333898285 0.0
6.599999999999998 0.04417330411585253 0.0
6.399999999999997 0.044173304115852255 0.0
6.199999999999998 0.02730060333898225 0.0
5.999999999999997 -3.641510413970719e-16 0.0
5.799999999999998 -0.02730060333898271 0.0
5.599999999999998 -0.04417330411585253 0.0
5.399999999999999 -0.04417330411585236 0.0
5.199999999999998 -0.02730060333898225 0.0
4.999999999999999 1.9345164705198868e-16 0.0
4.799999999999999 0.02730060333898257 0.0
4.599999999999999 0.04417330411585247 0.0
4.399999999999999 0.044173304115852324 0.0
4.199999999999999 0.027300603338982328 0.0
3.999999999999999 -1.877635838752623e-16 0.0
3.799999999999999 -0.027300603338982564 0.0
3.599999999999999 -0.04417330411585245 0.0
3.399999999999998 -0.044173304115852324 0.0
3.199999999999998 -0.027300603338982137 0.0
2.999999999999999 1.8207552069853595e-16 0.0
2.799999999999998 0.027300603338982623 0.0
2.599999999999998 0.044173304115852526 0.0
2.399999999999999 0.044173304115852366 0.0
2.199999999999999 0.02730060333898227 0.0
1.999999999999998 -3.0014595589807716e-16 0.0
1.799999999999999 -0.027300603338982557 0.0
1.6 -0.044173304115852415 0.0
1.4 -0.044173304115852415 0.0
1.199999999999999 -0.027300603338982293 0.0
0.9999999999999982 2.7383147632530622e-16 0.0
0.7999999999999989 0.027300603338982557 0.0
0.6000000000000014 0.04417330411585235 0.0
0.3999999999999986 0.04417330411585235 0.0
0.1999999999999993 0.02730060333898233 0.0
0.0 0.1999999999995579 0.0
0.0 0.3999999999989749 0.0
0.0 0.5999999999989468 0.0
0.0 0.7999999999994734 0.0
0.6635867226965266 0.5408714922718799 0.0
9.3364132773 0.5372232587698499 0.0
8.746847560111252 0.5560047515042196 0.0
1.2531524398851648 0.5534014706102336 0.0
8.171613361835329 0.5551947208690405 0.0
1.8283866381632685 0.5531852018890031 0.0
2.42087835088867 0.5748559696775861 0.0
7.57911918043097 0.5677907183996961 0.0
3.0184279184503535 0.5716212375171172 0.0
6.981315473066352 0.5719334394593389 0.0
3.6148690643974 0.5683127537958091 0.0
6.380574293692554 0.5729889202318245 0.0
4.2153908716980055 0.571357654188537 0.0
5.801492068205248 0.5149767364344245 0.0
4.794432826680183 0.5165045056365637 0.0
5.2979532280825 0.5094396684808836 0.0
9.673473194445751 0.6912586643866775 0.0
0.3265268055518774 0.702313207038608 0.0
4.520446929697845 0.3301076702974564 0.0
3.9050461971730033 0.3479264959429314 0.0
6.076637310952493 0.3249874034363639 0.0
3.3066546508981074 0.3448206698701076 0.0
6.692056807377818 0.3531299338808444 0.0
7.88784126207678 0.3445979791548418 0.0
2.1121585453764533 0.34936027967052213 0.0
2.709304340935306 0.3526667061778085 0.0
7.290638578160312 0.34578919543810094 0.0
9.037219964994332 0.6636687115223681 0.0
0.962780035000834 0.6649941976770992 0.0
1.524695612233268 0.3409992212808635 0.0
8.475304387764988 0.35058564143952686 0.0
8.46514999651259 0.6724281571892848 0.0
1.5348500034848118 0.6621807841350894 0.0
0.979327169566297 0.35590755817601977 0.0
9.02067283043099 0.3557840678757735 0.0
4.516618603962328 0.6810410608656423 0.0
3.90900314926133 0.6757781493202067 0.0
6.078962241428307 0.6776472829759963 0.0
2.111129270786962 0.6747193230243639 0.0
7.8888707186699625 0.6699976361881632 0.0
3.3123473184629004 0.6725708940185836 0.0
6.686808061862629 0.682719920033065 0.0
2.7162273052399226 0.6824494922938378 0.0
7.28375364531412 0.6729819997071295 0.0
0.3367155217230199 0.3065019003185727 0.0
9.663284478275912 0.2956543416872449 0.0
5.583221694465164 0.3075488239053675 0.0
5.0139537481106595 0.31329823355470676 0.0
5.511439201353676 0.6798170585936534 0.0
5.083895334839007 0.6835703027201241 0.0
0.6656882582231968 0.7364892168881617 0.0
9.334311741772133 0.723651810510396 0.0
8.751579471545611 0.7364575456537151 0.0
1.2484205284500212 0.7262170759678519 0.0
8.675452467463213 0.27076132764902705 0.0
1.3245475325350249 0.2581766723603008 0.0
0.6841524364228088 0.23907162458196482 0.0
9.315847563575682 0.2252884853341399 0.0
8.176030312089983 0.7353786550015877 0.0
1.8239696879086071 0.7278291889738714 0.0
8.089890449607118 0.2642329368628045 0.0
1.9101095410983457 0.2603828285467899 0.0
7.4942798786294915 0.25682664965554874 0.0
2.5057085803850967 0.2718634407226248 0.0
6.8960127321731814 0.26710574677230164 0.0
3.103511242154961 0.26183038795529284 0.0
6.294391299453625 0.26249141542038035 0.0
3.7016829341253703 0.2585833005246536 0.0
2.4172807740325175 0.8128817847082661 0.0
7.582718838673887 0.7797997150494812 0.0
3.014928558100781 0.7958392267192682 0.0
6.9849722502179725 0.7974669421587777 0.0
3.6107382520753193 0.780552705794872 0.0
6.386917784284879 0.8125992012565411 0.0
4.208662656008553 0.8065251504121361 0.0
5.797121314677929 0.825332927049209 0.0
4.798208511069973 0.8476718188008089 0.0
5.299169605980658 0.16589461667981198 0.0
4.303146963775813 0.2629728372780141 0.0
4.737592062060586 0.23809569678085127 0.0
5.8602305196795905 0.22247265691646154 0.0
5.297672425917238 0.7018085951239875 0.0
0.19790102956229344 0.5012996990734662 0.0
9.802098970436653 0.4983926775535298 0.0
9.483998501544471 0.14225836735620365 0.0
0.5160014984547066 0.17776112605982086 0.0
9.563666707447544 0.5051591750513456 0.0
0.436333292550147 0.5095888217416945 0.0
9.506190073706758 0.8152240576751962 0.0
0.493809926289078 0.8509780949525554 0.0
9.821795305214616 0.8176259159415278 0.0
0.17820469478392906 0.8341769691597006 0.0
7.696668536957001 0.16484990820024542 0.0
2.3033300448770957 0.19330883176008004 0.0
8.878338195686377 0.1906260114723016 0.0
1.1216618043122333 0.1788457416131624 0.0
7.098210385865649 0.17457747447872182 0.0
2.9016580414629223 0.18438332017640102 0.0
6.498442435642627 0.1949351569154279 0.0
3.500223116407934 0.1622594689164409 0.0
1.708230087761969 0.16447699093041745 0.0
8.291769912237282 0.1918252137901551 0.0
4.099865421837871 0.18340377821005288 0.0
8.581157717638922 0.8387337917836858 0.0
1.4188422823574647 0.8051038612164971 0.0
8.924519315182476 0.8246134602994584 0.0
1.0754806848120553 0.817651150134171 0.0
0.8431397983749178 0.8283175982275445 0.0
9.15686020161929 0.8128083540318082 0.0
8.34995275643057 0.8373749701643147 0.0
1.650047243567552 0.806192760022101 0.0
5.595484857578588 0.49272890551740944 0.0
5.000542759108327 0.49433139657665337 0.0
7.793541585489469 0.8150646004771187 0.0
2.206458405355049 0.8393493471689696 0.0
7.7862144778397235 0.5257763854624805 0.0
2.2137852597319676 0.5292372474309658 0.0
2.8098988612865057 0.8395374451708589 0.0
7.190082484001315 0.8182038561969931 0.0
3.4056481701628365 0.8103166168491109 0.0
6.593615218479582 0.8473693777303235 0.0
4.001972016365104 0.8289993320502589 0.0
5.989728559803907 0.835134400058677 0.0
4.605678999389808 0.8533442262915601 0.0
7.187134943363653 0.5285609470192146 0.0
2.812784046077441 0.5310950408280636 0.0
6.588730520936655 0.5315740516274269 0.0
3.4092706705662827 0.5273641644902102 0.0
5.9872771109325855 0.5167533495367296 0.0
4.007441448180983 0.5291495223865538 0.0
4.608711467305326 0.5180611690575595 0.0
8.556702213187291 0.5275041645764862 0.0
[...]
POINT_DATA 386
VECTORS vector double
1.0 0.0 0.0
0.0 0.0 0.0
0.0 0.0 0.0
0.0 0.0 0.0
0.0 0.0 0.0
1.0 0.0 0.0
0.0 0.0 0.0
0.0 0.0 0.0
0.0 0.0 0.0
0.0 0.0 0.0
0.0 0.0 0.0
0.0 0.0 0.0
0.0 0.0 0.0
0.0 0.0 0.0
0.0 0.0 0.0
0.0 0.0 0.0
0.0 0.0 0.0
0.0 0.0 0.0
0.0 0.0 0.0
0.0 0.0 0.0
0.0 0.0 0.0
0.0 0.0 0.0
0.0 0.0 0.0
0.0 0.0 0.0
0.0 0.0 0.0
0.0 0.0 0.0
0.0 0.0 0.0
0.0 0.0 0.0
0.0 0.0 0.0
0.0 0.0 0.0
0.0 0.0 0.0
0.0 0.0 0.0
0.0 0.0 0.0
0.0 0.0 0.0
0.0 0.0 0.0
0.0 0.0 0.0
0.0 0.0 0.0
0.0 0.0 0.0
0.0 0.0 0.0
0.0 0.0 0.0
0.0 0.0 0.0
0.0 0.0 0.0
0.0 0.0 0.0
0.0 0.0 0.0
0.0 0.0 0.0
0.0 0.0 0.0
0.0 0.0 0.0
0.0 0.0 0.0
0.0 0.0 0.0
0.0 0.0 0.0
0.0 0.0 0.0
0.0 0.0 0.0
0.0 0.0 0.0
0.0 0.0 0.0
1.02717348996 0.0743719469039 0.0
1.11546529758 -0.0146917751473 0.0
1.0982667116 0.00767478052651 0.0
1.16909823803 -0.0454478761153 0.0
0.0 0.0 0.0
0.0 0.0 0.0
0.0 0.0 0.0
0.0 0.0 0.0
0.0 0.0 0.0
0.0 0.0 0.0
0.0 0.0 0.0
0.0 0.0 0.0
0.0 0.0 0.0
0.0 0.0 0.0
0.0 0.0 0.0
0.0 0.0 0.0
0.0 0.0 0.0
0.0 0.0 0.0
0.0 0.0 0.0
0.0 0.0 0.0
0.0 0.0 0.0
0.0 0.0 0.0
0.0 0.0 0.0
0.0 0.0 0.0
0.0 0.0 0.0
0.0 0.0 0.0
0.0 0.0 0.0
0.0 0.0 0.0
0.0 0.0 0.0
0.0 0.0 0.0
0.0 0.0 0.0
0.0 0.0 0.0
0.0 0.0 0.0
0.0 0.0 0.0
0.0 0.0 0.0
0.0 0.0 0.0
0.0 0.0 0.0
0.0 0.0 0.0
0.0 0.0 0.0
0.0 0.0 0.0
0.0 0.0 0.0
0.0 0.0 0.0
0.0 0.0 0.0
0.0 0.0 0.0
0.0 0.0 0.0
0.0 0.0 0.0
0.0 0.0 0.0
0.0 0.0 0.0
0.0 0.0 0.0
0.0 0.0 0.0
0.0 0.0 0.0
0.0 0.0 0.0
0.0 0.0 0.0
1.0 0.0 0.0
1.0 0.0 0.0
1.0 0.0 0.0
1.0 0.0 0.0
1.09405446962 -0.0254076619721 0.0
1.10075733356 -0.0283397056313 0.0
1.08396147889 -0.038316893217 0.0
1.09650707653 -0.0341685857059 0.0
1.08790999345 0.0258537686875 0.0
1.0927344256 0.0531952261512 0.0
1.05203188331 0.0178740250307 0.0
1.09033410451 0.0155092118112 0.0
1.06949444734 -0.0397385382836 0.0
1.07007771543 -0.0373918838464 0.0
1.07526655864 0.0256186286258 0.0
1.0440428547 0.0172257811728 0.0
1.05266279736 0.0297634947578 0.0
1.08908996478 0.0671169051099 0.0
1.09716400963 -0.0491155619796 0.0
1.11481758462 -0.031785736159 0.0
1.09493638947 0.012513427186 0.0
1.06706130367 -0.0394295634866 0.0
1.09011288893 -0.000245126353771 0.0
1.05426882562 0.0509587357897 0.0
1.08933588513 0.0424452480191 0.0
1.05095444313 -0.0260559530914 0.0
1.05907787417 -0.0420403830924 0.0
1.07601277512 0.0265328162796 0.0
1.07296631276 0.0580264626183 0.0
1.07792563236 -0.0283131326362 0.0
1.06034509671 -0.0226110953256 0.0
1.06783799276 -0.039512354815 0.0
1.06481048814 -0.0369212165227 0.0
1.06258476866 0.00859874327371 0.0
1.08745871422 -0.0236255541806 0.0
1.06387306638 -0.00368825914282 0.0
1.08066804979 0.0146195680609 0.0
1.06207576155 -0.052594928934 0.0
1.0587047949 -0.0459146671785 0.0
1.06217262081 -0.0278302241119 0.0
1.05343098145 0.051943649318 0.0
1.02015863486 0.0653728310307 0.0
1.0499099934 0.0703405371213 0.0
1.06436826333 0.0282996475837 0.0
1.07782020758 -0.0284024279312 0.0
1.04916342841 -0.0395761350733 0.0
1.05090199629 -0.0379953331639 0.0
1.08494276615 -0.0293460398591 0.0
1.08341764301 0.0403343492601 0.0
1.08597232597 -0.00566421718217 0.0
1.02248359586 0.022908272684 0.0
1.06452332827 -0.0805541943214 0.0
1.11789552938 0.0366547946424 0.0
1.02612196663 -0.0771089650808 0.0
1.05793624736 -0.0161147840874 0.0
1.08155928162 -0.0412845317454 0.0
1.04261609283 -0.0447887084641 0.0
1.06723157518 -0.0520342860721 0.0
1.06925782887 -0.0269274249519 0.0
1.04483919981 -0.0234841257209 0.0
1.07720153854 -0.040974484753 0.0
1.04697833108 -0.0074123654819 0.0
1.04768669536 0.0200273528468 0.0
1.06473355781 0.0484179618511 0.0
1.06087068744 0.0504519366945 0.0
1.06426676112 0.0630281868066 0.0
1.04307681379 0.010069262435 0.0
1.08887360684 -0.0023601057225 0.0
1.05055663614 -0.0365392687015 0.0
1.05089188776 -0.0544772216381 0.0
1.07960324062 0.0337497847654 0.0
1.04177025386 0.0392129235931 0.0
1.15146450705 0.0167381276484 0.0
1.36115051395 0.0360559373747 0.0
1.23794436121 -0.100111297345 0.0
1.2334091304 -0.0983603166495 0.0
1.34742789523 0.0444126845266 0.0
1.16648900343 0.0140437790484 0.0
1.18807366014 0.058008483396 0.0
1.24101639887 0.146761418566 0.0
1.09757385468 -0.073797841988 0.0
1.13155536653 -0.0644641167583 0.0
1.1002470673 0.0305109228433 0.0
1.16511351727 -0.0455531744882 0.0
1.08768287524 0.122668653103 0.0
1.1724820938 -0.0886109409999 0.0
1.04078034014 0.00706168650223 0.0
1.10744895591 -0.00030503718267 0.0
1.0522009417 -0.00538172879828 0.0
1.25930515788 -0.0050721676584 0.0
1.10711644151 -0.00986111389146 0.0
1.09696294484 -0.00416969164417 0.0
1.24697517148 -0.0112126878228 0.0
1.04644752115 -0.0040914843455 0.0
1.07151977012 -0.0326074978161 0.0
1.09406614567 -0.0789463025993 0.0
1.05325101719 0.0353023082609 0.0
1.23471804561 0.0632006869587 0.0
1.21975264636 -0.0992863180936 0.0
1.15131186742 -0.0725191574929 0.0
1.11291417354 -0.0712448049963 0.0
1.18503462849 -0.086287753234 0.0
1.24987560215 -0.00655705977727 0.0
1.07064021487 0.0102796259601 0.0
1.09432911431 0.0632543787223 0.0
1.23475300598 0.0421663477717 0.0
1.17494500031 0.0970012365116 0.0
1.07425625432 -0.0404700025145 0.0
1.28498615609 -0.00940686960825 0.0
1.14337104126 -0.0712115103919 0.0
1.19588938944 -0.105393314604 0.0
1.11970278895 -0.0557002701584 0.0
1.2172475545 -0.0977978715918 0.0
1.08906083717 0.0470042961919 0.0
1.28302447083 0.0452833990933 0.0
1.11074650307 0.0303148780745 0.0
1.10807069492 -0.0643097110189 0.0
1.3186567915 0.0795230954888 0.0
1.14741905418 0.116285970124 0.0
1.09764107088 0.0290709235296 0.0
1.08801982423 0.0500084866835 0.0
1.15136734838 -0.0669738537562 0.0
1.29688277094 -0.10979822912 0.0
1.34985964816 -0.0171382573828 0.0
1.12812371066 -0.0668321887158 0.0
1.23691493107 0.133831571581 0.0
1.21680862952 0.139891659066 0.0
1.07121870906 -0.041553738768 0.0
1.09336894765 -0.0425288554221 0.0
1.08700273965 -0.0458857602162 0.0
1.07571185197 -0.0250305168646 0.0
1.0913860981 -0.00771536280599 0.0
1.08392835831 0.0791180354052 0.0
1.07941372557 0.0545894458649 0.0
1.0981507609 -0.0330115178773 0.0
1.09120632452 -0.0175568855199 0.0
1.09577705779 -0.00819786987102 0.0
1.0929643445 -0.0496976200742 0.0
1.09877155893 -0.0453857998844 0.0
1.09524470923 -0.0482342413034 0.0
1.0959020363 -0.0428527575702 0.0
1.08879519827 -0.00554679008558 0.0
1.09593669275 0.0248998779608 0.0
1.09450662699 0.00630595458296 0.0
1.08625146097 0.0586703626481 0.0
1.08712036216 0.0355637407028 0.0
1.08198165932 0.0405395939753 0.0
1.0788377797 0.0537678030388 0.0
1.0829075152 -0.0465202125016 0.0
1.08314301035 -0.0363714348103 0.0
1.07824261575 -0.025982782877 0.0
1.10630858367 -0.00735812081645 0.0
1.10790637176 -0.0256201364228 0.0
1.30903333057 0.0961367245401 0.0
1.18498636418 0.108922148796 0.0
1.18889878081 0.134729779781 0.0
1.21676380619 0.0756540880593 0.0
1.29985878034 -0.105092028758 0.0
1.14802678407 -0.0628799455642 0.0
1.12058612446 -0.0671836065322 0.0
1.35641961944 -0.0275936467832 0.0
1.25583206868 -0.0983558620502 0.0
1.15744637986 0.0526087492519 0.0
1.12435418194 0.201588717115 0.0
1.20134937747 0.0269811222304 0.0
1.14917531565 -0.0608709451354 0.0
1.21392259202 -0.117444484475 0.0
1.12897597524 -0.0198774537312 0.0
1.0996410104 -0.014953741631 0.0
1.04754625996 -0.0354564530129 0.0
1.27690591123 -0.0141335159293 0.0
1.07506159397 0.0974091647544 0.0
1.16148083748 0.0811704264369 0.0
1.13046021741 0.071786103101 0.0
1.22862685651 0.00512993226946 0.0
1.02143303121 -0.0136407538973 0.0
1.22993403282 -0.0817416179337 0.0
1.2310167483 -0.0652052565554 0.0
1.05859190862 -0.0935898746717 0.0
1.08907119019 -0.033667690818 0.0
1.067198338 -0.0400114960477 0.0
1.09071240338 0.0652146611481 0.0
1.10167443888 0.0216854049658 0.0
1.06600307499 0.0363098078877 0.0
1.16055357623 -0.137169228097 0.0
1.27179062141 -0.0775547623763 0.0
1.08693523905 0.0240251934086 0.0
1.07614725294 0.0220109623874 0.0
1.22056490046 0.0985778994014 0.0
1.11444934677 0.00883910138197 0.0
1.07252588305 -0.0503507684794 0.0
1.07048228938 -0.0291981272216 0.0
1.08150964792 0.00481038507096 0.0
1.04987632756 0.00579385285684 0.0
1.15527802965 -0.100786729127 0.0
1.07339125019 0.0419949925438 0.0
1.04481172312 0.0674463144706 0.0
1.08792350643 -0.05472274452 0.0
1.06909029077 -0.0194746669424 0.0
1.12245752843 -0.028817649732 0.0
1.06564019021 -0.035106261102 0.0
1.02708652096 0.0377224085839 0.0
1.04525156599 0.0828891485696 0.0
1.05889891525 0.0419568557067 0.0
1.02112743539 0.0364032221368 0.0
1.02309712954 -0.0177773943243 0.0
1.06042979855 -0.014945675198 0.0
1.04045837675 -0.0496892244991 0.0
1.06712129341 -0.0301699508532 0.0
1.08699237803 -0.0508214764191 0.0
1.08905312634 -0.0386208287099 0.0
1.03202518445 -0.00172705014024 0.0
1.10124122288 0.0515764774347 0.0
1.08137922373 0.0350015232232 0.0
1.1078244233 0.0428060362261 0.0
1.07904324225 0.00166709473273 0.0
1.08407916106 -0.0378617019103 0.0
1.09637412739 -0.0339891479704 0.0
1.05307247813 0.0540394549345 0.0
1.00268870119 0.0337566799731 0.0
1.0619525541 -0.0317598694136 0.0
1.04127710173 -0.048433884041 0.0
1.12504460584 -0.016296622174 0.0
1.09907516633 -0.00386790235452 0.0
1.03152637128 -0.0150223807657 0.0
1.06865129425 -0.0201949524744 0.0
1.03978061898 -0.0132513337172 0.0
1.05060690586 -0.0529500705629 0.0
1.28358302679 -0.101777103052 0.0
1.09937692355 0.0759296844126 0.0
1.06591131396 -0.0437802039164 0.0
1.09943813132 -0.0743904906945 0.0
1.11813970093 -0.00174967035342 0.0
1.07787026601 0.00155756323151 0.0
1.03629849959 0.0741439057304 0.0
0.993191438304 0.0286050506453 0.0
1.26299907485 0.0996316092633 0.0
1.04943072754 -0.0504287797607 0.0
1.13168811856 -0.015753434099 0.0
1.0722653593 -0.0316116261879 0.0
1.10395675454 -0.0327002623478 0.0
1.10552693665 -0.0308417190064 0.0
1.082428382 -0.0205925952753 0.0
1.15397766164 0.196081472456 0.0
1.19829907918 0.0776433999039 0.0
1.07475396363 -0.0139429825165 0.0
1.30318757671 -0.122803166145 0.0
1.09683971326 0.0369038999799 0.0
1.08664944314 0.0597124990358 0.0
1.17632241614 0.106831534788 0.0
0.986485528231 0.0904192744835 0.0
1.18804799181 0.0341795370695 0.0
1.09718194286 -0.00768744807897 0.0
1.0821214296 -0.000598958959619 0.0
1.10906499049 -0.0379228109872 0.0
1.08802660353 0.0728021504079 0.0
1.07662348231 -0.0483187671659 0.0
1.08122161129 -0.0431325623295 0.0
1.06672494789 0.0395492113758 0.0
1.08283887493 0.0351304116183 0.0
1.04631047411 -0.0789255725451 0.0
1.13505901037 -0.112074500048 0.0
1.09599641856 0.019654824766 0.0
1.22811668524 0.0200932986394 0.0
0.920243555066 -0.0153645946259 0.0
1.0481885837 0.132993892314 0.0
1.10764516919 0.0862084956893 0.0
0.971709796347 -0.0234600621197 0.0
1.22407936466 -0.0826354291532 0.0
1.0124319313 -0.0800180583229 0.0
1.2131459315 -0.101830690605 0.0
1.01392563485 -0.0216984995318 0.0
1.25779144686 -0.0881321373165 0.0
1.07075544256 0.070266812219 0.0
1.19775785388 0.0988159914856 0.0
1.02699890982 0.113942488401 0.0
1.13348018457 0.0763199031334 0.0
1.22785076265 -0.0890383878361 0.0
0.980399400292 -0.016232015621 0.0

SCALARS scalar1 double
LOOKUP_TABLE default
4.52840980637
12.6168146582
8.17017439453
10.0057440632
-9.1658092598
-2.31244944622
9.05210579263
8.07588065207
7.59268573088
8.08204835392
8.36286538886
11.3536676337
13.0721790197
11.0983444103
10.824840769
8.61697991645
7.07212496332
6.8585658313
8.00503853222
8.0771791583
9.35870339688
12.2017477234
11.0570073441
10.5848328706
10.6755582726
8.04697658082
7.07098054138
7.42816080417
7.65362330475
8.64006432137
11.4900442996
8.40024377306
13.6738549625
11.3871569629
10.797696199
9.43650444391
7.37972153404
6.92894644895
7.96195173575
7.93247510874
9.21200485248
12.1029138368
11.1620228401
10.7445051425
10.1251649531
9.55806618349
6.7521754238
7.71807186145
8.73795394223
8.80660444037
12.0424893487
13.5708891154
13.4551782919
12.7843183275
-0.0179803061672
0.00141468412739
-0.0634672768439
0.510053006228
-9.2882537933
-7.93259796548
-8.17208570873
-8.36948000238
-8.65288824169
-11.7545538465
-15.7365311088
-11.8897307577
-11.8396903576
-11.1606228662
-7.77118991331
-7.34676900951
-8.13997480859
-7.66265935062
-9.74930784331
-13.4338371932
-11.7806047009
-13.4868495057
-13.6695371762
-12.6452062665
-7.09158599331
-7.58294701555
-7.42118796105
-7.87755836772
-9.25778379982
-9.47926219167
-16.270111086
-15.2429446969
-11.7014428303
-9.05933300929
-9.40910250448
-7.62766328177
-7.314807909
-9.5997194283
-10.1188028535
-10.6865756269
-15.2815653047
-13.095220314
-10.5480944041
-11.2858205045
-8.41836761366
-7.33358487833
-8.77640092096
-8.30442823071
-8.67443669948
-12.1634386852
-14.678132994
-14.5156913889
-13.7139608784
2.64535037841
0.0229503036032
0.0285738622059
-2.01151418496
0.0503624575364
0.0194744655801
0.0689580696624
0.0516338870767
0.0659439260675
0.0423744526543
0.0247996159776
0.0910738636887
0.0554930419558
0.0561333782974
0.0825780715372
0.0391636035013
0.0387721399613
0.0209244891327
0.0365643531238
-0.014718458528
-0.175200127604
-0.0733249845244
0.098564896378
0.0724631449765
0.177889403874
0.12139181784
-0.000586448071003
0.0896418801501
0.0461728142475
0.0550248402933
0.0702589752627
-0.0588436603438
-0.0851956410222
0.130539620101
0.0154694092115
-0.127881876744
0.00343340695873
0.00470536037161
0.0523552821598
-0.149729797345
-0.18283320688
-0.0207018414389
-0.0829553758449
-0.176619007563
-0.18568517425
-0.191512686013
-0.182990811253
-0.196071858342
0.153155551193
0.142119483813
0.207252307569
0.0754304098325
-0.0484912721234
-0.108769191715
-0.256789684105
-0.372039458103
-0.313240049706
-0.388643952358
0.445121258332
0.437424779022
0.545611004325
0.488739527847
-0.443240366287
-0.384662811727
0.223091709992
0.421664065426
0.137240558727
0.420676758134
0.375535279942
0.394770834253
0.40031699615
0.414160516303
-0.838596651131
-1.27480361233
-0.876195218226
-0.83594344825
-1.27238309502
-1.02389128434
-1.06001706012
-0.700084389151
0.354558278839
0.656760933964
0.39759710885
0.710533436548
0.648629401518
-0.390752227903
0.00716255075933
-0.00231410849054
-0.822866991099
0.282788667685
-0.0176574158475
0.0136315706171
-0.294038544767
0.816876922826
0.0145713786885
-0.33601400871
-0.380819601992
0.677842527393
0.459080279749
0.657287586295
0.108675757791
0.653751146856
0.540259363463
0.450720301387
0.432933024942
0.266618761766
0.600560032493
0.124931982184
-0.208785291458
0.310893469482
-0.678570893456
0.287918644074
-0.714520193624
0.374160358334
-0.819609426843
-0.0885500267417
0.0014090650463
-0.533490678333
-0.146913108742
0.0295660201349
0.0158938920413
0.251976601926
-0.191099355291
-0.850375016285
0.666686626382
-0.693013696829
-1.07279441749
0.793745605701
0.0252021167584
0.015811639485
0.0269186508892
0.00492162415737
0.0263269147901
0.019821643674
-0.00188396368286
0.0313174684222
-0.000540872639889
0.00443598076017
-0.00423676976857
-0.000692195444907
-0.0038085763362
0.0278561184271
-0.0213445700129
-0.00226182220591
0.00202872160682
0.0420093869271
0.0403901172029
0.0625186083884
0.0381498402629
0.0498150867084
0.0429514073725
0.0516704669396
0.75324039226
-0.397411807364
-0.728963162135
-0.0583552300552
-0.851165295252
-0.243645443927
0.313448086645
0.680583842981
-0.836368485684
-0.659675261344
0.193232615701
0.208053726187
-0.499011293501
0.387536201601
0.218410807274
-0.0180784557625
0.0544655929058
-0.872910521531
0.521781673402
-0.729535170054
-0.570635864238
-0.865899086359
-0.318722539249
-1.070217972
-0.214325436872
0.490814413218
-0.704102443702
-0.0725331365313
-0.0467897656906
-0.728878598603
-0.05929903813
-0.00400566526559
0.226723776802
-0.40881773679
-0.0551917257355
-0.00291535504522
0.578477959045
0.0460322146145
-0.0294525086652
-0.0142704374053
-0.0544903394758
0.00402179699009
-0.231577162133
-0.0306330912617
0.100209511464
0.00770963955997
-0.00872408020762
-0.0313664559109
-0.0169790320935
-0.15646373148
0.0170824065397
-0.494681204558
-0.152812503838
-0.555344962666
-0.0782243144213
-0.113507173997
-0.494204524158
-0.0516826515405
0.0131553968259
-0.53638716786
-0.0577660187981
0.00294672914566
0.0569829156698
-0.0892943656606
-0.0407447056314
0.0353281503332
-0.513591308116
-0.146569849267
-0.501363908817
-0.127954913851
-0.0745345755678
0.0060527801354
-0.532836232595
-0.0993591652641
-0.0393983636086
0.0318210203626
2.71528509928
0.016326965387
0.00398020836313
0.0812044279843
-0.0465473317068
0.048314865925
0.438896407945
-2.21863433615
-1.35898728901
-0.55839949109
-0.107636694902
-0.0573199744187
-0.0781301458684
-0.13832549978
-0.123124162954
-2.5448910964
0.922821601036
2.81279053623
-0.105424369915
-0.110946284406
-0.105180139466
-2.4191582358
-2.791214535
-0.893454505277
-0.0819360924165
-0.111905344748
-0.113440603875
-0.0229429007582
-0.0756596956149
-0.128077235912
-0.0713666503272
-0.0791810845468
-2.71686190943
-1.35809948755
-0.0880408548645
-1.90963101712
-2.79057435139
-2.62024671056
-1.87391050004
2.41123818971
1.7204382822
2.47437917975
1.69412624848
-2.84600001306
-0.546824607785
2.26199878571
1.70024941549
5.53532093469
1.61789689332
-1.89341842624
-3.23748669398

SCALARS scalar2 double
LOOKUP_TABLE default
4.52840980637
12.6168146582
8.17017439453
10.0057440632
-9.1658092598
-2.31244944622
9.05210579263
8.07588065207
7.59268573088
8.08204835392
8.36286538886
11.3536676337
13.0721790197
11.0983444103
10.824840769
8.61697991645
7.07212496332
6.8585658313
8.00503853222
8.0771791583
9.35870339688
12.2017477234
11.0570073441
10.5848328706
10.6755582726
8.04697658082
7.07098054138
7.42816080417
7.65362330475
8.64006432137
11.4900442996
8.40024377306
13.6738549625
11.3871569629
10.797696199
9.43650444391
7.37972153404
6.92894644895
7.96195173575
7.93247510874
9.21200485248
12.1029138368
11.1620228401
10.7445051425
10.1251649531
9.55806618349
6.7521754238
7.71807186145
8.73795394223
8.80660444037
12.0424893487
13.5708891154
13.4551782919
12.7843183275
-0.0179803061672
0.00141468412739
-0.0634672768439
0.510053006228
-9.2882537933
-7.93259796548
-8.17208570873
-8.36948000238
-8.65288824169
-11.7545538465
-15.7365311088
-11.8897307577
-11.8396903576
-11.1606228662
-7.77118991331
-7.34676900951
-8.13997480859
-7.66265935062
-9.74930784331
-13.4338371932
-11.7806047009
-13.4868495057
-13.6695371762
-12.6452062665
-7.09158599331
-7.58294701555
-7.42118796105
-7.87755836772
-9.25778379982
-9.47926219167
-16.270111086
-15.2429446969
-11.7014428303
-9.05933300929
-9.40910250448
-7.62766328177
-7.314807909
-9.5997194283
-10.1188028535
-10.6865756269
-15.2815653047
-13.095220314
-10.5480944041
-11.2858205045
-8.41836761366
-7.33358487833
-8.77640092096
-8.30442823071
-8.67443669948
-12.1634386852
-14.678132994
-14.5156913889
-13.7139608784
2.64535037841
0.0229503036032
0.0285738622059
-2.01151418496
0.0503624575364
0.0194744655801
0.0689580696624
0.0516338870767
0.0659439260675
0.0423744526543
0.0247996159776
0.0910738636887
0.0554930419558
0.0561333782974
0.0825780715372
0.0391636035013
0.0387721399613
0.0209244891327
0.0365643531238
-0.014718458528
-0.175200127604
-0.0733249845244
0.098564896378
0.0724631449765
0.177889403874
0.12139181784
-0.000586448071003
0.0896418801501
0.0461728142475
0.0550248402933
0.0702589752627
-0.0588436603438
-0.0851956410222
0.130539620101
0.0154694092115
-0.127881876744
0.00343340695873
0.00470536037161
0.0523552821598
-0.149729797345
-0.18283320688
-0.0207018414389
-0.0829553758449
-0.176619007563
-0.18568517425
-0.191512686013
-0.182990811253
-0.196071858342
0.153155551193
0.142119483813
0.207252307569
0.0754304098325
-0.0484912721234
-0.108769191715
-0.256789684105
-0.372039458103
-0.313240049706
-0.388643952358
0.445121258332
0.437424779022
0.545611004325
0.488739527847
-0.443240366287
-0.384662811727
0.223091709992
0.421664065426
0.137240558727
0.420676758134
0.375535279942
0.394770834253
0.40031699615
0.414160516303
-0.838596651131
-1.27480361233
-0.876195218226
-0.83594344825
-1.27238309502
-1.02389128434
-1.06001706012
-0.700084389151
0.354558278839
0.656760933964
0.39759710885
0.710533436548
0.648629401518
-0.390752227903
0.00716255075933
-0.00231410849054
-0.822866991099
0.282788667685
-0.0176574158475
0.0136315706171
-0.294038544767
0.816876922826