# vtk DataFile Version 2.0
2D Simulation Python
ASCII
DATASET UNSTRUCTURED_GRID
FIELD FieldData 1
NODES 1 2 int
386 659

POINTS 386 double
0.0 1.0 0.0
1.725 0.9700586403872804 0.0
8.275 1.0299413596127194 0.0
10.0 1.0 0.0
10.0 -4.822107120490877e-17 0.0
0.0 0.0 0.0
0.1916666666663293 1.0223025246957989 0.0
0.3833333333324708 1.0367601893484122 0.0
0.574999999998553 1.038287544785733 0.0
0.7666666666645966 1.0263473473635925 0.0
0.9583333333312576 1.0051395331403656 0.0
1.149999999998384 0.9821239003528881 0.0
1.341666666665662 0.9653961431204514 0.0
1.533333333332819 0.9608402102836574 0.0
1.92348484848444 0.9906258302947312 0.0
2.121969696968978 1.0147213513773508 0.0
2.320454545453434 1.0332759227397974 0.0
2.518939393937826 1.0393058141277596 0.0
2.717424242422235 1.0305414428010256 0.0
2.915909090906411 1.0102816187401347 0.0
3.1143939393908 0.9861519099777059 0.0
3.312878787875129 0.9672344652640714 0.0
3.511363636359531 0.9606495962679862 0.0
3.709848484843827 0.9688757730079902 0.0
3.90833333332816 0.9888167558429569 0.0
4.106818181812215 1.0129669849620164 0.0
4.305303030296804 1.0322365879854067 0.0
4.503787878781365 1.0393727048499242 0.0
4.702272727265711 1.0316893820904471 0.0
4.900757575750005 1.012078535265749 0.0
5.099242424235156 0.9879214647359984 0.0
5.297727272720327 0.9683106179105778 0.0
5.496212121205663 0.9606272951500949 0.0
5.694696969690998 0.967763412013727 0.0
5.89318181817668 0.9870330150366867 0.0
6.09166666666213 1.0111832441558912 0.0
6.290151515147423 1.0311242269913468 0.0
6.488636363633031 1.0393504037319812 0.0
6.687121212118713 1.0327655347363511 0.0
6.885606060604342 1.0138480900228566 0.0
7.084090909089381 0.9897183812603674 0.0
7.282575757574369 0.9694585571992396 0.0
7.481060606059355 0.960694185872261 0.0
7.679545454544343 0.9667240772600555 0.0
7.878030303029329 0.9852786486224548 0.0
8.076515151514705 1.0093741697051664 0.0
8.46666666666447 1.0391597897163078 0.0
8.658333333329285 1.034603856879847 0.0
8.84999999999549 1.0178760996477871 0.0
9.041666666661694 0.9948604668604988 0.0
9.233333333327899 0.973652652637097 0.0
9.42499999999549 0.961712455214439 0.0
9.616666666663775 0.9632398106514213 0.0
9.808333333331985 0.9776974753040295 0.0
10.0 0.7999999999999998 0.0
10.0 0.6000000000013869 0.0
10.0 0.4000000000016644 0.0
10.0 0.2000000000008322 0.0
9.799999999999999 -0.02314433396120804 0.0
9.6 -0.03744831899621284 0.0
9.399999999999999 -0.03744831899621278 0.0
9.2 -0.023144333961207735 0.0
8.999999999999998 3.2317866774325073e-16 0.0
8.799999999999997 0.02314433396120824 0.0
8.599999999999998 0.03744831899621292 0.0
8.399999999999997 0.03744831899621269 0.0
8.199999999999998 0.023144333961207617 0.0
7.999999999999997 -3.183565606227598e-16 0.0
7.799999999999997 -0.02314433396120824 0.0
7.599999999999998 -0.03744831899621292 0.0
7.399999999999997 -0.03744831899621269 0.0
7.199999999999998 -0.02314433396120775 0.0
6.999999999999997 3.1353445350226896e-16 0.0
6.799999999999997 0.02314433396120824 0.0
6.599999999999998 0.03744831899621292 0.0
6.399999999999997 0.03744831899621269 0.0
6.199999999999998 0.02314433396120773 0.0
5.999999999999997 -3.0871234638177804e-16 0.0
5.799999999999998 -0.02314433396120813 0.0
5.599999999999998 -0.03744831899621292 0.0
5.399999999999999 -0.03744831899621279 0.0
5.199999999999998 -0.02314433396120773 0.0
4.999999999999999 1.640003874318708e-16 0.0
4.799999999999999 0.023144333961208005 0.0
4.599999999999999 0.0374483189962129 0.0
4.399999999999999 0.037448318996212766 0.0
4.199999999999999 0.02314433396120781 0.0
3.999999999999999 -1.591782803113799e-16 0.0
3.799999999999999 -0.023144333961208005 0.0
3.599999999999999 -0.037448318996212884 0.0
3.399999999999998 -0.037448318996212766 0.0
3.199999999999998 -0.023144333961207637 0.0
2.999999999999999 1.5435617319088902e-16 0.0
2.799999999999998 0.02314433396120806 0.0
2.599999999999998 0.03744831899621294 0.0
2.399999999999999 0.0374483189962128 0.0
2.199999999999999 0.023144333961207745 0.0
1.999999999999998 -2.5445145494246044e-16 0.0
1.799999999999999 -0.023144333961207998 0.0
1.6 -0.037448318996212836 0.0
1.4 -0.037448318996212836 0.0
1.199999999999999 -0.023144333961207776 0.0
0.9999999999999982 2.321431163432925e-16 0.0
0.7999999999999989 0.023144333961207998 0.0
0.6000000000000014 0.03744831899621278 0.0
0.3999999999999986 0.03744831899621278 0.0
0.1999999999999993 0.023144333961207814 0.0
0.0 0.1999999999995579 0.0
0.0 0.3999999999989749 0.0
0.0 0.5999999999989468 0.0
0.0 0.7999999999994734 0.0
0.658817729311814 0.5507452344438073 0.0
9.341181726840885 0.5410023570435007 0.0
8.741499236459774 0.5715551877652515 0.0
1.2584973610316528 0.5629782596291694 0.0
8.162935624711649 0.5753011953904733 0.0
1.8370467896588192 0.56980554327714 0.0
2.4303367500380326 0.6042158351622952 0.0
7.569574316491264 0.5909094977356854 0.0
3.030380816758189 0.601412037159201 0.0
6.96911821064734 0.6005679094516733 0.0
3.6285562094515122 0.5947024951704996 0.0
6.368053580820664 0.5964819421279062 0.0
4.229314852617268 0.5953093737633469 0.0
5.795171955140917 0.5233570596157534 0.0
4.802426069318194 0.5313935891237522 0.0
5.298813528127171 0.5135779790576501 0.0
9.677465077570327 0.6936936024509588 0.0
0.3225347892977599 0.7072470797144677 0.0
4.53046369233783 0.34575975078630017 0.0
3.9187315146795245 0.3706926183521987 0.0
6.068013604695318 0.33831884289534664 0.0
3.3193097053480147 0.37040892885526816 0.0
6.679732439447449 0.37766052390808247 0.0
7.879072170698869 0.364231549738344 0.0
2.1208923364503027 0.37018880453394354 0.0
2.7200111887775584 0.3806162781036708 0.0
7.279801983296235 0.3693928146212574 0.0
9.037312351854412 0.6715069939782479 0.0
0.9626864298929422 0.6733105941183601 0.0
1.5320131874371234 0.353217084838842 0.0
8.467979908113618 0.36708478996476823 0.0
8.458366688069392 0.6874676223213729 0.0
1.5416266649803132 0.6721314827081597 0.0
0.9793572702420438 0.36555219876094514 0.0
9.02064135194547 0.3648321824448547 0.0
4.527138575665671 0.6986058968875032 0.0
3.9213137665108473 0.6994083887505921 0.0
6.069733944745149 0.6917145482494726 0.0
2.118286570946868 0.6947743475758102 0.0
7.881681159625782 0.6886056648486371 0.0
3.3232617640287585 0.697878037859252 0.0
6.6756316582411745 0.70804765281735 0.0
2.7252744080106224 0.7102172820418462 0.0
7.274548414867242 0.6968798217162145 0.0
0.3328286818383156 0.31018070452997093 0.0
9.667171170070276 0.29700941624865324 0.0
5.58134040415724 0.3121814247212657 0.0
5.017192625229455 0.3206872921772012 0.0
5.509468421558576 0.6845647253288497 0.0
5.087370092001964 0.6908631937152512 0.0
0.6618778938759762 0.74306405890964 0.0
9.338121702462544 0.7278936688351886 0.0
8.747675384998313 0.7462399051346362 0.0
1.2523221229421995 0.7335552906275997 0.0
8.670439796784239 0.2831229035707203 0.0
1.3295568519801342 0.26877925498382654 0.0
0.6803808587296842 0.24438401057359294 0.0
9.319618734149188 0.2293290158464507 0.0
8.1699806662486 0.7491410938281777 0.0
1.8300066137387412 0.7402523705236653 0.0
8.082312201307412 0.2800339669390132 0.0
1.9176703439664737 0.27587101036959255 0.0
7.485256496933108 0.27677547726327517 0.0
2.514652585720276 0.2939864408912249 0.0
6.885231913606525 0.2884631894686359 0.0
3.1143169857111093 0.28487119076823864 0.0
6.284987368309977 0.27703952600092524 0.0
3.713705770662514 0.2795597845047543 0.0
2.422387067038541 0.827671807488625 0.0
7.577561681030842 0.7961620553886685 0.0
3.021538952706757 0.8138919307493108 0.0
6.9781608921063984 0.8145858956722736 0.0
3.618395624198066 0.7990232480904319 0.0
6.379517259442133 0.8245909468884794 0.0
4.216833676435487 0.8196934002564258 0.0
5.7936161912900745 0.8319196737710473 0.0
4.802550176613954 0.8534483624875407 0.0
5.299575808899166 0.17086526875744568 0.0
4.313815307028755 0.2781912478384006 0.0
4.743165736838865 0.24667255141327643 0.0
5.855754284944661 0.23022605894382567 0.0
5.298366945833402 0.706773843249051 0.0
0.1948298560797166 0.505236599043117 0.0
9.805170053839134 0.4989788867167328 0.0
9.486973947608641 0.14612948888579108 0.0
0.5130258806843422 0.17848311670602562 0.0
9.56894318745653 0.506852332435857 0.0
0.43105655502480067 0.5174470886363259 0.0
9.509149317273584 0.8198669492448343 0.0
0.4908505279108027 0.8527637323066515 0.0
9.82368858344564 0.8200248111775149 0.0
0.17631137446627074 0.8354270733487966 0.0
7.690728108892916 0.17951558284450037 0.0
2.3092350262829333 0.20564886260572585 0.0
8.87669416283041 0.1971726720106051 0.0
1.1233044804843084 0.18626759815438254 0.0
7.090932069393072 0.19005814734490972 0.0
2.9088823351820525 0.20007000248561005 0.0
6.491118371075765 0.20526679592043762 0.0
3.508472081627166 0.17955156318654117 0.0
1.7132749534072786 0.1755376476648846 0.0
8.286717933950973 0.2004919254078433 0.0
4.108072277687553 0.1950385216151604 0.0
8.577600940330848 0.8443232432008636 0.0
1.422396146624048 0.8126134080675131 0.0
8.923362832442812 0.8296243500600119 0.0
1.0766360971635285 0.8227937435681527 0.0
0.8418465323773221 0.8321599855188104 0.0
9.15815295226357 0.8175216206251591 0.0
8.345897583725765 0.8441737443666822 0.0
1.654096765115741 0.8150012477141186 0.0
5.592469017854331 0.4974553337492021 0.0
5.005231405774691 0.5038349855532149 0.0
7.789456422201487 0.8281301398255555 0.0
2.2105188322530154 0.8504001322485139 0.0
7.776964667620994 0.5478015387966481 0.0
2.222983652665009 0.5556539231889025 0.0
2.815218903188217 0.8544433738774379 0.0
7.184640732841629 0.8343294570306949 0.0
3.4119969133909755 0.8277993792247542 0.0
6.587077284927579 0.8593099591379244 0.0
4.009151786203042 0.842842118584384 0.0
5.984856996691202 0.8423737334736694 0.0
4.611312695282955 0.8601935583976896 0.0
7.175264627503501 0.5561770153334454 0.0
2.8244535015603014 0.5635339559682422 0.0
6.575287218901596 0.5600677746743301 0.0
3.4229743299745983 0.5550502445070145 0.0
5.97808191635684 0.5301218842400716 0.0
4.022308917327644 0.5553036549659238 0.0
4.619509494939612 0.5370933417269341 0.0
8.549075433149948 0.5461425734947658 0.0
[...]
POINT_DATA 386
VECTORS vector double
1.0 0.0 0.0
0.0 0.0 0.0
0.0 0.0 0.0
0.0 0.0 0.0
0.0 0.0 0.0
1.0 0.0 0.0
0.0 0.0 0.0
0.0 0.0 0.0
0.0 0.0 0.0
0.0 0.0 0.0
0.0 0.0 0.0
0.0 0.0 0.0
0.0 0.0 0.0
0.0 0.0 0.0
0.0 0.0 0.0
0.0 0.0 0.0
0.0 0.0 0.0
0.0 0.0 0.0
0.0 0.0 0.0
0.0 0.0 0.0
0.0 0.0 0.0
0.0 0.0 0.0
0.0 0.0 0.0
0.0 0.0 0.0
0.0 0.0 0.0
0.0 0.0 0.0
0.0 0.0 0.0
0.0 0.0 0.0
0.0 0.0 0.0
0.0 0.0 0.0
0.0 0.0 0.0
0.0 0.0 0.0
0.0 0.0 0.0
0.0 0.0 0.0
0.0 0.0 0.0
0.0 0.0 0.0
0.0 0.0 0.0
0.0 0.0 0.0
0.0 0.0 0.0
0.0 0.0 0.0
0.0 0.0 0.0
0.0 0.0 0.0
0.0 0.0 0.0
0.0 0.0 0.0
0.0 0.0 0.0
0.0 0.0 0.0
0.0 0.0 0.0
0.0 0.0 0.0
0.0 0.0 0.0
0.0 0.0 0.0
0.0 0.0 0.0
0.0 0.0 0.0
0.0 0.0 0.0
0.0 0.0 0.0
0.902570909939 0.092113430861 0.0
1.39937113966 0.000360817473854 0.0
1.41155891161 -0.00688346045953 0.0
1.02136365264 -0.0864344182069 0.0
0.0 0.0 0.0
0.0 0.0 0.0
0.0 0.0 0.0
0.0 0.0 0.0
0.0 0.0 0.0
0.0 0.0 0.0
0.0 0.0 0.0
0.0 0.0 0.0
0.0 0.0 0.0
0.0 0.0 0.0
0.0 0.0 0.0
0.0 0.0 0.0
0.0 0.0 0.0
0.0 0.0 0.0
0.0 0.0 0.0
0.0 0.0 0.0
0.0 0.0 0.0
0.0 0.0 0.0
0.0 0.0 0.0
0.0 0.0 0.0
0.0 0.0 0.0
0.0 0.0 0.0
0.0 0.0 0.0
0.0 0.0 0.0
0.0 0.0 0.0
0.0 0.0 0.0
0.0 0.0 0.0
0.0 0.0 0.0
0.0 0.0 0.0
0.0 0.0 0.0
0.0 0.0 0.0
0.0 0.0 0.0
0.0 0.0 0.0
0.0 0.0 0.0
0.0 0.0 0.0
0.0 0.0 0.0
0.0 0.0 0.0
0.0 0.0 0.0
0.0 0.0 0.0
0.0 0.0 0.0
0.0 0.0 0.0
0.0 0.0 0.0
0.0 0.0 0.0
0.0 0.0 0.0
0.0 0.0 0.0
0.0 0.0 0.0
0.0 0.0 0.0
0.0 0.0 0.0
0.0 0.0 0.0
1.0 0.0 0.0
1.0 0.0 0.0
1.0 0.0 0.0
1.0 0.0 0.0
1.23640454271 -0.0461735147547 0.0
1.45672857317 -0.0439268211622 0.0
1.43548267896 -0.0169108327758 0.0
1.35850667291 -0.0328309149496 0.0
1.43680618545 0.031325609231 0.0
1.41189851447 0.0308777990531 0.0
1.39338965471 0.0235872637253 0.0
1.42744830523 -0.00456988772787 0.0
1.40860193089 -0.0279976227393 0.0
1.41032077253 -0.0282901819364 0.0
1.42492214648 -0.00216202840044 0.0
1.40941301932 0.0151720156622 0.0
1.4145599839 0.0265886174627 0.0
1.44473086401 0.0223817307484 0.0
1.4482743002 -0.0166401713137 0.0
1.4782883371 -0.0201149832468 0.0
1.27110728416 -0.00353306725247 0.0
1.11952339097 -0.105596879273 0.0
1.31112199114 0.0157857146735 0.0
1.34222868067 0.0256133264913 0.0
1.28056352305 0.0218870015278 0.0
1.35836718757 -0.0221852561599 0.0
1.34228241749 -0.00726347905844 0.0
1.34391052815 0.0235954449129 0.0
1.35637456443 0.0481664928715 0.0
1.37431944229 -0.0051171057834 0.0
1.34482153665 -0.030621660904 0.0
1.32870936193 -0.0439008407991 0.0
1.24391094542 -0.0598673126994 0.0
1.35493715442 0.0242327590991 0.0
1.33957560085 0.0129018620262 0.0
1.325594669 0.0118097131586 0.0
1.27165959384 -0.000300203755718 0.0
1.34680612653 -0.0113880179488 0.0
1.3586568705 -0.0466148697997 0.0
1.27191857194 0.00327283153289 0.0
1.26290995385 0.0315539055912 0.0
1.29848757016 0.0396946415447 0.0
1.25565870378 0.0482568814572 0.0
1.30195384451 0.0226996834833 0.0
1.26526823864 -0.024449983318 0.0
1.25264832631 -0.012073673229 0.0
1.23199214699 -0.00749845067899 0.0
1.27111433624 -0.0332433790849 0.0
1.15074067559 0.0994816540673 0.0
1.2820806861 -0.0225174616889 0.0
1.23488585249 0.00231196052935 0.0
1.25366911024 -0.0313926395493 0.0
1.27414833837 0.0172237384503 0.0
1.25694579611 -0.0454269288819 0.0
1.15859451563 -0.072740989173 0.0
1.20779439661 -0.0390125527837 0.0
1.1889459557 -0.0180300491984 0.0
1.14652510243 -0.043892778367 0.0
1.17927943429 -0.0056991666343 0.0
1.21997626548 -0.0105364974501 0.0
1.2137269249 0.018283931422 0.0
1.1051953227 -0.0378387451917 0.0
1.18652406896 0.0320514849355 0.0
1.1532227722 0.025987531998 0.0
1.16764553819 0.0415132621919 0.0
1.21227652327 0.031640555616 0.0
1.17313665411 -0.000974880143623 0.0
1.21516270711 0.0128951385618 0.0
1.19031507971 -0.0205125264211 0.0
1.19023531561 -0.0429876647835 0.0
1.15582024753 0.0296291645986 0.0
1.18517488953 -0.00194717541567 0.0
0.851400426591 0.0164276563907 0.0
1.06147692191 0.00481866918367 0.0
0.963419588054 -0.0452156433319 0.0
0.970476932424 -0.047315351401 0.0
1.04239704209 0.00952341634197 0.0
0.893129230744 0.0196944562513 0.0
0.894020818029 0.035593050164 0.0
0.92708342001 0.0342687482774 0.0
0.803883070565 -0.0269259127702 0.0
0.839015971692 -0.0252509530144 0.0
1.17499256272 0.0274876065624 0.0
1.02480412248 -0.0381583924936 0.0
0.941448614331 0.0404725632649 0.0
1.20716348118 -0.0201290382292 0.0
1.01024047475 -0.00130406451507 0.0
1.46500803522 -0.0138071185067 0.0
0.770649898711 -0.0131907556042 0.0
1.18461751492 0.0668452668506 0.0
1.47247557918 -0.0271173208262 0.0
1.13681782543 -0.0167014749922 0.0
0.910549256052 -0.0191383820712 0.0
0.942860349539 -0.0700053483044 0.0
0.810221307428 -0.0505696284776 0.0
1.09362545634 -0.144209684611 0.0
0.866249166173 0.00664725313309 0.0
1.0363374125 0.0490832043356 0.0
0.935887578332 -0.0488620239511 0.0
1.00084397196 -0.0167071074971 0.0
0.894017562166 -0.0492054240264 0.0
0.954890842315 -0.0273352361081 0.0
1.00545994913 0.00067612759884 0.0
0.857790056966 0.000886582882283 0.0
0.916146592045 0.0382924813767 0.0
0.990179616686 0.0265338077224 0.0
0.96322272944 0.0528537046794 0.0
0.794422237945 -0.0094069273447 0.0
0.957919165612 -0.0170694215437 0.0
0.880504153496 -0.0322362208774 0.0
0.920443496609 -0.0752407464586 0.0
0.904554816921 -0.0592565607096 0.0
0.936668482128 -0.0610633560828 0.0
0.788706408298 0.0351743977461 0.0
0.934116016551 0.00507641654643 0.0
1.44566282683 -0.00957963053561 0.0
1.45376269915 -0.0136972552568 0.0
0.897526065132 0.0253775401745 0.0
0.743270183734 0.0394117507728 0.0
1.48295118178 0.0182999819761 0.0
1.45663617293 0.0367802203558 0.0
0.781559864303 -0.0280268097548 0.0
0.913176827172 -0.0449760336168 0.0
0.94391453024 -0.0255249124604 0.0
0.757823095746 -0.00394855095862 0.0
0.806273085349 0.0403698765713 0.0
0.863531496154 0.0486400672893 0.0
0.76397287247 -0.0104798761673 0.0
1.47314541861 -0.0299503731712 0.0
1.46620098298 -0.0247884969065 0.0
1.46063037286 0.00877860927068 0.0
1.48151145686 -0.021557512097 0.0
1.45602022371 0.0307768193301 0.0
1.47336083169 0.0244025380287 0.0
1.46673178422 -0.00300560802424 0.0
1.46667735126 0.000174626451112 0.0
1.41552660615 -2.44971686771e-05 0.0
1.35008470181 -0.0410453217843 0.0
1.315210802 -0.041905059011 0.0
1.47690351024 -0.0372431991159 0.0
1.47240023236 -0.054537733187 0.0
1.4536838646 0.0181911312821 0.0
1.44306177253 0.0197360535713 0.0
1.48225435623 0.0199155920766 0.0
1.44871993309 0.0495451141619 0.0
1.46640332914 0.027071972502 0.0
1.46440134193 0.0281554414417 0.0
1.43900881937 0.0290861136636 0.0
1.45806214308 -0.0185889687871 0.0
1.44712826771 -0.0298267775017 0.0
1.44122569665 0.0179583396146 0.0
1.46174136742 -0.0312481642008 0.0
0.740182196898 0.0104299497168 0.0
0.873717323832 0.0377914741075 0.0
0.794512741454 0.0422276945878 0.0
0.826842975793 0.0603233674051 0.0
0.858749260965 0.0256244391078 0.0
0.907290626384 -0.0400073937347 0.0
0.794885901042 -0.0277927709419 0.0
0.732828418253 -0.00328107719048 0.0
0.953399762243 -0.031412630409 0.0
0.914489669504 0.000190682553839 0.0
0.818584710109 -0.0368448183165 0.0
1.18653205617 0.226142107343 0.0
0.850134564057 0.00509288312581 0.0
0.857944501418 -0.0344670778537 0.0
1.06615884502 -0.039843381838 0.0
1.34206852174 -0.0448915127869 0.0
1.19281257258 -0.0949617356701 0.0
0.803859601026 -0.00387180498542 0.0
0.911648559278 0.0132175571845 0.0
0.80380850787 0.0446712139511 0.0
0.901558458407 0.044461383331 0.0
0.818304532935 0.0659220469625 0.0
0.878965398783 -0.00089373212546 0.0
0.751196012076 -0.0158790088839 0.0
0.91495530812 -0.0202156490322 0.0
0.893025703353 -0.0162096243585 0.0
0.756019046534 -0.0364470906569 0.0
1.3900325202 -0.0246937757438 0.0
1.36197462957 -0.00944339310717 0.0
0.816016316623 0.0250131095697 0.0
1.38930510871 0.0332132849579 0.0
1.39100030965 0.0302256028087 0.0
0.837203633466 -0.0410632765187 0.0
0.976072422649 0.0632200274323 0.0
1.42054049761 0.0297744417522 0.0
1.39263214104 0.0100903810357 0.0
0.978768300571 -0.00290967152621 0.0
0.785634718769 -0.00622347604002 0.0
1.41738399421 -0.0280909375365 0.0
1.40131349374 -0.0259350790042 0.0
1.39276620622 0.0225181588155 0.0
1.4013848139 -0.0139307159123 0.0
0.868684383692 -0.0257849765985 0.0
1.40038766014 0.0214546014775 0.0
1.31553558097 0.0430331483371 0.0
1.34243149023 -0.0459008372885 0.0
1.29958735899 0.006590549697 0.0
1.26546776263 -0.0335543740798 0.0
1.28309906904 -0.00917197754575 0.0
1.28877536736 0.0396512026077 0.0
1.31124425954 0.0295896904666 0.0
1.28953824601 0.00293838835352 0.0
1.25537941084 0.0402645255075 0.0
1.28719602585 0.00475787681174 0.0
1.28406907999 -0.00757260908885 0.0
1.25465272163 -0.0192402099072 0.0
1.28555853356 -0.0415777132059 0.0
1.30868441663 -0.0373029419405 0.0
1.24469398795 -0.0460703537308 0.0
1.28713580768 0.0203904286078 0.0
1.27682233378 0.0286883041612 0.0
1.31241496188 0.0388235421474 0.0
1.28309309715 0.0218906497785 0.0
1.30384053167 0.018444109337 0.0
1.21868749323 -0.074539374123 0.0
1.33351390496 -0.0354406424751 0.0
1.27738078616 0.00844666582526 0.0
1.30871351641 0.0295229763296 0.0
1.27558056646 -0.0389153273547 0.0
1.26964958462 -0.0215011723686 0.0
1.25759992499 0.049128485052 0.0
1.3458562596 -0.0292272078941 0.0
1.2535169729 0.00546878371894 0.0
1.28881425973 -0.0143218694882 0.0
1.32564800551 -0.0251952924649 0.0
1.33367609 -0.0151122688829 0.0
1.02690106108 -0.135567634627 0.0
1.32979536607 0.000384657070595 0.0
1.30804679416 -0.00932990738099 0.0
1.46801652243 -0.0281766440298 0.0
1.4694348914 -0.00818194559456 0.0
1.30431517036 -0.00207344780801 0.0
1.03621184905 0.0943566588805 0.0
0.656975051276 -0.00852192524885 0.0
1.22902424439 0.166512496317 0.0
1.01983286616 -0.0867893776819 0.0
1.30173478553 -0.00294303363602 0.0
1.34781604165 -0.0404894183513 0.0
1.29793263408 0.00403362121601 0.0
1.44491873275 -0.0160156893745 0.0
1.38652499252 0.0151709181875 0.0
0.80618852471 0.120692970068 0.0
0.766416572094 0.0477015862801 0.0
1.01007623798 -0.111199083062 0.0
0.908110986156 -0.0846818957889 0.0
1.4344228816 0.0205821984775 0.0
1.42771497575 0.0568190611086 0.0
0.745816721457 0.0522626146451 0.0
0.600465293038 0.0203323270855 0.0
0.739069090761 0.0144756787037 0.0
1.46393982495 0.0308049173324 0.0
1.43444835927 -0.0281081194979 0.0
1.42521948124 -0.019770820398 0.0
1.39424557587 0.0346088512734 0.0
1.45066105392 -0.0160412336347 0.0
1.4467728407 -0.0363580093154 0.0
1.44171252522 0.022628176836 0.0
1.43502694573 0.0251792119173 0.0
0.623449319942 -0.0251510872374 0.0
0.675576842447 -0.0428816322139 0.0
1.4520610124 0.028936014146 0.0
0.802675322693 0.0180981343116 0.0
0.573207242 -0.0169684401232 0.0
0.682975714912 0.0490398803424 0.0
0.709174597349 0.0346843920539 0.0
0.709836380967 -0.035941413067 0.0
0.774763173047 -0.052546472827 0.0
0.625491629981 -0.017350137952 0.0
0.783329465294 -0.0529224348775 0.0
0.677014795701 0.0151651607371 0.0
0.739406748898 -0.0365127902869 0.0
0.602332617188 0.0379248988758 0.0
0.696824308891 0.0280832723299 0.0
0.52221641888 0.0675377651942 0.0
1.11487788805 0.033434790108 0.0
0.90121537695 -0.0279651474825 0.0
0.527063291255 0.00349614777404 0.0

SCALARS scalar1 double
LOOKUP_TABLE default
3.81509392424
6.77094397469
4.55003616261
4.9174086382
-5.98089173558
-2.54963693033
8.79213563151
7.5656244948
5.76129988299
5.57864155839
5.8968209146
6.85323484466
7.5921286456
6.99716893987
5.98951974776
4.93824906558
4.46299128856
4.47235070681
4.73835148053
5.56898991872
6.44423418469
7.45610788054
7.44041467843
6.84694554433
5.94841781494
5.10589164469
4.54132699426
4.51570508104
5.04066821597
5.53194445795
7.88563353972
5.69184188791
9.69724658867
7.38787735059
6.71975028871
5.55353653908
4.74538337816
4.64045886053
4.79502470857
5.49183658219
6.37190718871
7.39440169115
7.48828363344
6.92861919214
6.0031682222
5.31648343324
4.35650912466
4.62475025278
5.19447073392
5.8555037047
6.96071927739
7.32889505491
7.59102780354
6.23818526606
3.70120775362
1.23855094739
-0.93737616833
-3.02613152282
-5.28560157159
-4.86384118314
-4.20006557543
-4.28239720239
-5.38717863934
-6.09944507203
-7.53650333746
-7.04548755923
-6.48970710466
-5.95083763997
-4.96969342857
-4.2419326282
-4.36894298336
-4.78469984482
-5.1481730562
-6.42667934507
-6.95776188895
-7.00225755509
-6.95720423647
-7.42604335199
-4.13821262167
-4.581116903
-4.49186789438
-4.82597978572
-5.48555360633
-5.41243695835
-8.87061163538
-7.59598686092
-6.45062638836
-5.7869238372
-4.95309683146
-4.26213437446
-4.46481350312
-4.71824259622
-5.1969553586
-6.31195213508
-7.52070191397
-7.14109103848
-6.81145064129
-6.24305352077
-5.16175728837
-5.02982764405
-5.21932472844
-5.28957463775
-6.58439409778
-7.78974692748
-9.75891786238
-12.69855209
-13.2218792506
3.09317047147
-0.0229163439487
-0.014033049013
-2.53288375218
0.110357638757
0.406325779033
0.594471224543
0.624958487427
0.606634322256
0.771987243029
0.988694330006
0.893716982561
1.00307424819
0.882565802683
0.972816350305
0.691176101945
0.824509820903
0.029135017341
0.187578310685
0.0242543725572
2.47923138305
-0.730219904578
-1.9386740138
-1.47429154697
-1.72025954599
-1.44836352375
-1.58988259464
-1.48758430513
-1.373576986
-1.50908358845
-1.4703080927
1.76876293077
1.10526163087
-0.996506537725
-1.71634879834
1.81382988405
1.90941336493
-0.191652654684
-1.60481659882
1.91402242018
2.33859594623
1.77686584847
2.08865670876
2.20013445254
2.21918987725
1.92317381637
2.02967664195
2.14194752913
0.891607134047
-1.97321283296
-1.9095420668
-2.0433136718
1.90674939632
1.950936261
1.13587386104
2.69785843094
2.45933526519
2.32105510531
-2.7930130933
-1.92999001165
-2.20282728244
-2.86781822979
2.7270954179
2.81822175973
-2.4813326468
-2.21809704807
-2.31267899558
-2.57528973384
-2.60446625974
-2.537525365
-2.6087933328
-2.27126607126
3.71355612356
3.36108863864
3.34564458193
3.36597239849
3.43301522961
3.7381887746
3.78861893338
3.97889301634
3.93160757704
-3.66564047931
-2.62434951376
-3.0037047693
-2.7509151359
1.99789915757
0.0569928808575
0.0274655079801
-3.97629094854
-2.76578499154
0.0749733248762
0.0749850655382
3.73123655855
3.42245085608
4.02669616068
-0.200808693472
-3.46341087328
-3.2496415447
-3.61411208576
-3.4004761207
-3.59892051331
-3.69104478049
-3.30375239064
-3.58759745762
-3.5665014937
-3.28056980426
-3.23113741492
3.89344246166
3.29404529008
3.59166011074
3.12641294796
3.19823294219
3.43000325939
4.010474145
3.51796046737
-0.180201863298
-0.122674743577
3.87968115369
4.00934498766
0.353826466496
0.559953451767
3.88668912803
3.65389306202
3.65917061408
4.06129935193
4.13139386238
4.19455427683
4.0802740159
0.431230208417
0.593677583186
0.383999978885
0.461734675559
0.0495590755489
0.41925758768
0.241043819224
0.305871287166
0.477229086898
0.336587889637
0.228223816577
0.210190895284
0.152507591028
0.383006590248
0.417028541808
0.251422267445
0.535798601846
0.313131051463
0.513174376824
0.217416535588
0.568704952548
0.502917891318
0.640287388376
0.469044267895
4.08091632313
3.96546102589
4.18031540907
3.8701943941
4.04617202058
3.64120564535
3.94156265026
4.00907699552
3.63600956426
-3.42025167758
-3.48026122619
0.329550416132
-3.87231557595
-3.77511020888
-3.27695239199
1.93322358005
-0.276253830772
-4.15757866695
-3.70832631076
-3.72324445923
-3.6894310836
-3.73743623936
-3.78018746702
-3.95051399189
-3.83196009861
-3.77536150521
-3.97418140801
-1.32649700941
-0.233691334086
-3.68886767641
-1.28305835943
-0.820668886438
-3.67857120391
3.51338101275
-0.998460151373
-1.13590088485
3.61917306137
-3.72207341167
-1.07641185111
-1.13266610524
-1.19849074741
-1.08883725181
3.80776168841
-1.17146836681
-1.51173412152
-1.62427369078
1.71294595917
1.70973815675
1.84600875556
2.18823658591
1.80442839819
2.31013466883
2.07432255698
1.96142144881
2.28164913402
2.07302083204
2.08876919412
1.67251222533
1.23858070891
2.05741820035
2.00728918646
1.93095883169
1.82854182732
1.79962520554
0.786359411344
1.66779370578
2.41856972429
1.80116854224
2.17798397136
1.99338882652
0.373183534281
-1.5727896245
2.10111516287
2.22173673446
-1.37004916833
-1.42899358057
3.43545756537
1.82032197862
1.78845901196
0.494685521102
0.457520392832
-1.86146890642
1.36135210956
-4.48170136836
-2.91400644242
-1.22152762748
2.2965560231
-1.50840083994
0.124197003233
-0.922440072057
-0.195744843717
-3.84473564476
4.28320992088
4.09783131868
-4.03279671019
-0.85859862815
-0.570591509922
-3.96122702716
-4.2072145105
-3.93479851586
-0.591412432405
-0.756104049373
-1.21172413308
-1.18567713903
-0.686417612296
-0.731662857855
-0.749530320263
-0.860293572069
-4.31126457681
-4.22567945976
-0.852892817906
-3.99514000803
-4.30587662396
-4.31391334539
-4.0293021127
4.40738627469
4.05791415136
4.44820340047
3.8886984041
-4.65884133686
-4.15860522936
4.6713522165
4.26226035928
4.51705164666
1.16493375458
-4.31951404364
-4.44358833595

SCALARS scalar2 double
LOOKUP_TABLE default
3.81509392424
6.77094397469
4.55003616261
4.9174086382
-5.98089173558
-2.54963693033
8.79213563151
7.5656244948
5.76129988299
5.57864155839
5.8968209146
6.85323484466
7.5921286456
6.99716893987
5.98951974776
4.93824906558
4.46299128856
4.47235070681
4.73835148053
5.56898991872
6.44423418469
7.45610788054
7.44041467843
6.84694554433
5.94841781494
5.10589164469
4.54132699426
4.51570508104
5.04066821597
5.53194445795
7.88563353972
5.69184188791
9.69724658867
7.38787735059
6.71975028871
5.55353653908
4.74538337816
4.64045886053
4.79502470857
5.49183658219
6.37190718871
7.39440169115
7.48828363344
6.92861919214
6.0031682222
5.31648343324
4.35650912466
4.62475025278
5.19447073392
5.8555037047
6.96071927739
7.32889505491
7.59102780354
6.23818526606
3.70120775362
1.23855094739
-0.93737616833
-3.02613152282
-5.28560157159
-4.86384118314
-4.20006557543
-4.28239720239
-5.38717863934
-6.09944507203
-7.53650333746
-7.04548755923
-6.48970710466
-5.95083763997
-4.96969342857
-4.2419326282
-4.36894298336
-4.78469984482
-5.1481730562
-6.42667934507
-6.95776188895
-7.00225755509
-6.95720423647
-7.42604335199
-4.13821262167
-4.581116903
-4.49186789438
-4.82597978572
-5.48555360633
-5.41243695835
-8.87061163538
-7.59598686092
-6.45062638836
-5.7869238372
-4.95309683146
-4.26213437446
-4.46481350312
-4.71824259622
-5.1969553586
-6.31195213508
-7.52070191397
-7.14109103848
-6.81145064129
-6.24305352077
-5.16175728837
-5.02982764405
-5.21932472844
-5.28957463775
-6.58439409778
-7.78974692748
-9.75891786238
-12.69855209
-13.2218792506
3.09317047147
-0.0229163439487
-0.014033049013
-2.53288375218
0.110357638757
0.406325779033
0.594471224543
0.624958487427
0.606634322256
0.771987243029
0.988694330006
0.893716982561
1.00307424819
0.882565802683
0.972816350305
0.691176101945
0.824509820903
0.029135017341
0.187578310685
0.0242543725572
2.47923138305
-0.730219904578
-1.9386740138
-1.47429154697
-1.72025954599
-1.44836352375
-1.58988259464
-1.48758430513
-1.373576986
-1.50908358845
-1.4703080927
1.76876293077
1.10526163087
-0.996506537725
-1.71634879834
1.81382988405
1.90941336493
-0.191652654684
-1.60481659882
1.91402242018
2.33859594623
1.77686584847
2.08865670876
2.20013445254
2.21918987725
1.92317381637
2.02967664195
2.14194752913
0.891607134047
-1.97321283296
-1.9095420668
-2.0433136718
1.90674939632
1.950936261
1.13587386104
2.69785843094
2.45933526519
2.32105510531
-2.7930130933
-1.92999001165
-2.20282728244
-2.86781822979
2.7270954179
2.81822175973
-2.4813326468
-2.21809704807
-2.31267899558
-2.57528973384
-2.60446625974
-2.537525365
-2.6087933328
-2.27126607126
3.71355612356
3.36108863864
3.34564458193
3.36597239849
3.43301522961
3.7381887746
3.78861893338
3.97889301634
3.93160757704
-3.66564047931
-2.62434951376
-3.0037047693
-2.7509151359
1.99789915757
0.0569928808575
0.0274655079801
-3.97629094854
-2.76578499154
0.0749733248762
0.0749850655382
3.73123655855
3.42245085608
4.02669616068
-0.200808693472
-3.46341087328
-3.2496415447
-3.61411208576
-3.4004761207
-3.59892051331
-3.69104478049
-3.30375239064
-3.58759745762
-3.5665014937
-3.28056980426
-3.23113741492
3.89344246166
3.29404529008
3.59166011074
3.12641294796
3.19823294219
3.43000325939
4.010474145
3.51796046737
-0.180201863298
-0.122674743577
3.87968115369
4.00934498766