# vtk DataFile Version 2.0
2D Simulation Python
ASCII
DATASET UNSTRUCTURED_GRID
FIELD FieldData 1
NODES 1 2 int
386 659

POINTS 386 double
0.0 1.0 0.0
1.725 0.9700586403872802 0.0
8.275 1.0299413596127192 0.0
10.0 1.0 0.0
10.0 -4.822107120490887e-17 0.0
0.0 0.0 0.0
0.1916666666663293 1.0223025246957989 0.0
0.3833333333324708 1.036760189348414 0.0
0.574999999998553 1.0382875447857316 0.0
0.7666666666645966 1.0263473473635918 0.0
0.9583333333312576 1.0051395331403656 0.0
1.149999999998384 0.9821239003528893 0.0
1.341666666665662 0.9653961431204507 0.0
1.533333333332819 0.9608402102836561 0.0
1.92348484848444 0.990625830294731 0.0
2.121969696968978 1.0147213513773496 0.0
2.320454545453434 1.0332759227397958 0.0
2.518939393937826 1.0393058141277582 0.0
2.717424242422235 1.030541442801026 0.0
2.915909090906411 1.0102816187401358 0.0
3.1143939393908 0.9861519099777059 0.0
3.312878787875129 0.967234465264071 0.0
3.511363636359531 0.9606495962679865 0.0
3.709848484843827 0.9688757730079903 0.0
3.90833333332816 0.9888167558429563 0.0
4.106818181812215 1.0129669849620164 0.0
4.305303030296804 1.0322365879854054 0.0
4.503787878781365 1.0393727048499244 0.0
4.702272727265711 1.0316893820904465 0.0
4.900757575750005 1.012078535265749 0.0
5.099242424235156 0.9879214647359983 0.0
5.297727272720327 0.9683106179105766 0.0
5.496212121205663 0.9606272951500957 0.0
5.694696969690998 0.9677634120137266 0.0
5.89318181817668 0.9870330150366876 0.0
6.09166666666213 1.0111832441558912 0.0
6.290151515147423 1.031124226991346 0.0
6.488636363633031 1.0393504037319823 0.0
6.687121212118713 1.0327655347363505 0.0
6.885606060604342 1.0138480900228566 0.0
7.084090909089381 0.9897183812603674 0.0
7.282575757574369 0.9694585571992392 0.0
7.481060606059355 0.9606941858722606 0.0
7.679545454544343 0.9667240772600553 0.0
7.878030303029329 0.9852786486224548 0.0
8.076515151514705 1.0093741697051664 0.0
8.46666666666447 1.0391597897163085 0.0
8.658333333329285 1.0346038568798464 0.0
8.84999999999549 1.0178760996477876 0.0
9.041666666661694 0.9948604668604988 0.0
9.233333333327899 0.9736526526370973 0.0
9.42499999999549 0.9617124552144386 0.0
9.616666666663775 0.9632398106514204 0.0
9.808333333331985 0.9776974753040291 0.0
10.0 0.7999999999999998 0.0
10.0 0.6000000000013869 0.0
10.0 0.4000000000016644 0.0
10.0 0.2000000000008322 0.0
9.799999999999999 -0.02314433396120808 0.0
9.6 -0.03744831899621293 0.0
9.399999999999999 -0.03744831899621286 0.0
9.2 -0.023144333961207783 0.0
8.999999999999998 3.2317866774325137e-16 0.0
8.799999999999997 0.023144333961208286 0.0
8.599999999999998 0.03744831899621302 0.0
8.399999999999997 0.03744831899621277 0.0
8.199999999999998 0.023144333961207693 0.0
7.999999999999997 -3.1835656062276026e-16 0.0
7.799999999999997 -0.023144333961208286 0.0
7.599999999999998 -0.03744831899621302 0.0
7.399999999999997 -0.03744831899621277 0.0
7.199999999999998 -0.023144333961207797 0.0
6.999999999999997 3.135344535022695e-16 0.0
6.799999999999997 0.023144333961208293 0.0
6.599999999999998 0.03744831899621302 0.0
6.399999999999997 0.03744831899621275 0.0
6.199999999999998 0.023144333961207787 0.0
5.999999999999997 -3.0871234638177873e-16 0.0
5.799999999999998 -0.023144333961208186 0.0
5.599999999999998 -0.03744831899621302 0.0
5.399999999999999 -0.03744831899621287 0.0
5.199999999999998 -0.023144333961207787 0.0
4.999999999999999 1.6400038743187124e-16 0.0
4.799999999999999 0.02314433396120804 0.0
4.599999999999999 0.037448318996213 0.0
4.399999999999999 0.03744831899621283 0.0
4.199999999999999 0.023144333961207846 0.0
3.999999999999999 -1.5917828031138013e-16 0.0
3.799999999999999 -0.02314433396120804 0.0
3.599999999999999 -0.03744831899621295 0.0
3.399999999999998 -0.03744831899621283 0.0
3.199999999999998 -0.023144333961207686 0.0
2.999999999999999 1.5435617319088937e-16 0.0
2.799999999999998 0.023144333961208113 0.0
2.599999999999998 0.037448318996213044 0.0
2.399999999999999 0.037448318996212884 0.0
2.199999999999999 0.0231443339612078 0.0
1.999999999999998 -2.544514549424609e-16 0.0
1.799999999999999 -0.023144333961208068 0.0
1.6 -0.0374483189962129 0.0
1.4 -0.0374483189962129 0.0
1.199999999999999 -0.023144333961207804 0.0
0.9999999999999982 2.3214311634329305e-16 0.0
0.7999999999999989 0.023144333961208068 0.0
0.6000000000000014 0.03744831899621286 0.0
0.3999999999999986 0.03744831899621286 0.0
0.1999999999999993 0.02314433396120785 0.0
0.0 0.1999999999995579 0.0
0.0 0.3999999999989749 0.0
0.0 0.5999999999989468 0.0
0.0 0.7999999999994734 0.0
0.658846672181056 0.5547094959264908 0.0
9.34115279945589 0.5372288486682579 0.0
8.741432843888035 0.5744936061244517 0.0
1.2585641980519773 0.5604299958534539 0.0
8.162841450085995 0.5775774082334348 0.0
1.837143349858604 0.5680295462848433 0.0
2.430441360809976 0.6097219372868008 0.0
7.5694774433823255 0.5858878428572553 0.0
3.030492246446115 0.6013760155701163 0.0
6.969026184836373 0.6010709379750416 0.0
3.6286638988549544 0.5898534894031566 0.0
6.3679826698657624 0.6017240623418272 0.0
4.2294007717306785 0.5988643816420431 0.0
5.795134235634025 0.5202007009284256 0.0
4.802478518887909 0.5340420192677051 0.0
5.298820266747771 0.5088402416448796 0.0
9.67745450947586 0.6874260960371786 0.0
0.3225453491523254 0.713587783308575 0.0
4.530525394782541 0.3524521351210143 0.0
3.9188227626469643 0.3696463296462035 0.0
6.067964737187193 0.33895970521810687 0.0
3.319411585772053 0.3654697545164324 0.0
6.6796553536845575 0.3830069853317619 0.0
7.878986044459743 0.3619090742548224 0.0
2.1209823989730094 0.3729540278061652 0.0
2.720110294914719 0.3852631153237556 0.0
7.279714263250773 0.36518253884646756 0.0
9.037270241724585 0.670929865983699 0.0
0.9627286494983032 0.674150507582878 0.0
1.5320838479092866 0.3478244815144479 0.0
8.467910220516153 0.37286645674555613 0.0
8.458294142766414 0.693478766382144 0.0
1.5417001683150375 0.6665244604826271 0.0
0.9793998675540344 0.3658201282840347 0.0
9.020598892079674 0.3648274039962321 0.0
4.5271997751388895 0.7057368152269147 0.0
3.9214025971240902 0.6976473314936875 0.0
6.069685660351368 0.6936751169172237 0.0
2.1183770002348083 0.6977848704273591 0.0
7.881594499752386 0.686039845129875 0.0
3.323361153142883 0.6921311263034773 0.0
6.675556617933517 0.7142047171576472 0.0
2.7253711643044194 0.7159131637189936 0.0
7.2744627556001245 0.6916080039702655 0.0
0.3328395781182146 0.31624376729883363 0.0
9.667160267573506 0.29102132045472495 0.0
5.581324219994783 0.3046059583691643 0.0
5.017220607394577 0.32006383362802726 0.0
5.509457727605281 0.6766917034519477 0.0
5.087392122020268 0.6883721573093577 0.0
0.6619005094034803 0.7499029678400781 0.0
9.33809909470091 0.7212044786721371 0.0
8.747624310928314 0.7516084285865587 0.0
1.252373519274269 0.7284874883266503 0.0
8.67038798526489 0.28977957120543985 0.0
1.3296091197958133 0.2624223643568152 0.0
0.6804015937637693 0.25161324729881474 0.0
9.319598013560318 0.22223620247632297 0.0
8.169907996890318 0.7532040307497708 0.0
1.8300810440240807 0.7365756198895237 0.0
8.082241617209617 0.2820367484743813 0.0
1.917743131786443 0.2742394535408588 0.0
7.4851805921227195 0.26918962503622024 0.0
2.514735567862606 0.3019510459961236 0.0
6.885160963514441 0.2915397754789673 0.0
3.1144048681936423 0.2821604732070063 0.0
6.284935231340527 0.2829554340009747 0.0
3.7137890439707375 0.2737516519121839 0.0
2.422449309132848 0.833598725044206 0.0
7.577503963946652 0.7905237208886198 0.0
3.0216051109835624 0.8137916871945106 0.0
6.978106160436206 0.814962856363541 0.0
3.6184596493071877 0.793514812753353 0.0
6.379474968962261 0.8303667828562754 0.0
4.216884897074808 0.8234000912128651 0.0
5.793598400131385 0.8279540274386529 0.0
4.802574982300511 0.8572182395402697 0.0
5.299579324208993 0.16582746436274773 0.0
4.31387896823297 0.28529880551132214 0.0
4.743204933913522 0.2514244486509729 0.0
5.855724986019093 0.2266520845597771 0.0
5.298372066438454 0.7013878878589628 0.0
0.1948372677649379 0.5082757177906122 0.0
9.805162635633964 0.49599143351905123 0.0
9.486963243157936 0.13947890551152078 0.0
0.5130365845922221 0.1852058910545196 0.0
9.568925521161331 0.5022729233715533 0.0
0.43107421503167903 0.5221467709880658 0.0
9.509138635933427 0.8131064548847345 0.0
0.49086120529610083 0.8595968497812186 0.0
9.823684716681106 0.8154982731855561 0.0
0.17631523677719912 0.8399808898566631 0.0
7.690675621640659 0.17441786012327906 0.0
2.309290976062627 0.21101192687073753 0.0
8.876663735255736 0.19987349283752445 0.0
1.1233350733176435 0.1837495173410641 0.0
7.090880438806048 0.18890149491411837 0.0
2.9089430480616523 0.2014866994590077 0.0
6.491076251556673 0.21135523034883918 0.0
3.50853232670684 0.1736597154040114 0.0
1.713321402962757 0.1712052590071882 0.0
8.286672452414619 0.20507055870816754 0.0
4.108122729067092 0.1976660626775112 0.0
8.577560101804893 0.8501871118751597 0.0
1.4224373956541005 0.8069820900776833 0.0
8.923332976649375 0.8313950451344251 0.0
1.0766660706066757 0.821204769211394 0.0
0.8418681022793953 0.8353877518313002 0.0
9.158131416716886 0.8144315144648469 0.0
8.34585037169493 0.8495255526322687 0.0
1.6541447900838793 0.8099069918430897 0.0
5.592449090365178 0.4918989004975849 0.0
5.005265140555534 0.5033144104123979 0.0
7.7894051080937 0.8244774858233108 0.0
2.2105728178387105 0.8543138102268979 0.0
7.7768650769596 0.5446024525055573 0.0
2.2230886734483257 0.5593591770582669 0.0
2.815276574433989 0.858210045130733 0.0
7.184590602249291 0.8308114012835652 0.0
3.412055205340466 0.8218707351196387 0.0
6.58703481728226 0.865482448195221 0.0
4.009202335060046 0.8428885785434216 0.0
5.984832283930075 0.8422528538166516 0.0
4.6113447176778 0.8663616292853166 0.0
7.17516616331896 0.5538037865000501 0.0
2.824567023893609 0.5663972606951703 0.0
6.575204015927373 0.5651987850596343 0.0
3.423088906983869 0.5503803068122178 0.0
5.97803092008801 0.5297746127215769 0.0
4.022408006481787 0.5558691369340059 0.0
4.619575537839183 0.5417336956193058 0.0
8.548997314155311 0.5501030309170274 0.0
[...]
POINT_DATA 386
VECTORS vector double
1.0 0.0 0.0
0.0 0.0 0.0
0.0 0.0 0.0
0.0 0.0 0.0
0.0 0.0 0.0
1.0 0.0 0.0
0.0 0.0 0.0
0.0 0.0 0.0
0.0 0.0 0.0
0.0 0.0 0.0
0.0 0.0 0.0
0.0 0.0 0.0
0.0 0.0 0.0
0.0 0.0 0.0
0.0 0.0 0.0
0.0 0.0 0.0
0.0 0.0 0.0
0.0 0.0 0.0
0.0 0.0 0.0
0.0 0.0 0.0
0.0 0.0 0.0
0.0 0.0 0.0
0.0 0.0 0.0
0.0 0.0 0.0
0.0 0.0 0.0
0.0 0.0 0.0
0.0 0.0 0.0
0.0 0.0 0.0
0.0 0.0 0.0
0.0 0.0 0.0
0.0 0.0 0.0
0.0 0.0 0.0
0.0 0.0 0.0
0.0 0.0 0.0
0.0 0.0 0.0
0.0 0.0 0.0
0.0 0.0 0.0
0.0 0.0 0.0
0.0 0.0 0.0
0.0 0.0 0.0
0.0 0.0 0.0
0.0 0.0 0.0
0.0 0.0 0.0
0.0 0.0 0.0
0.0 0.0 0.0
0.0 0.0 0.0
0.0 0.0 0.0
0.0 0.0 0.0
0.0 0.0 0.0
0.0 0.0 0.0
0.0 0.0 0.0
0.0 0.0 0.0
0.0 0.0 0.0
0.0 0.0 0.0
0.893240383177 0.0979107003476 0.0
1.40065767025 0.000256839782507 0.0
1.42511390432 -0.0064746574127 0.0
1.02379390068 -0.0817879525314 0.0
0.0 0.0 0.0
0.0 0.0 0.0
0.0 0.0 0.0
0.0 0.0 0.0
0.0 0.0 0.0
0.0 0.0 0.0
0.0 0.0 0.0
0.0 0.0 0.0
0.0 0.0 0.0
0.0 0.0 0.0
0.0 0.0 0.0
0.0 0.0 0.0
0.0 0.0 0.0
0.0 0.0 0.0
0.0 0.0 0.0
0.0 0.0 0.0
0.0 0.0 0.0
0.0 0.0 0.0
0.0 0.0 0.0
0.0 0.0 0.0
0.0 0.0 0.0
0.0 0.0 0.0
0.0 0.0 0.0
0.0 0.0 0.0
0.0 0.0 0.0
0.0 0.0 0.0
0.0 0.0 0.0
0.0 0.0 0.0
0.0 0.0 0.0
0.0 0.0 0.0
0.0 0.0 0.0
0.0 0.0 0.0
0.0 0.0 0.0
0.0 0.0 0.0
0.0 0.0 0.0
0.0 0.0 0.0
0.0 0.0 0.0
0.0 0.0 0.0
0.0 0.0 0.0
0.0 0.0 0.0
0.0 0.0 0.0
0.0 0.0 0.0
0.0 0.0 0.0
0.0 0.0 0.0
0.0 0.0 0.0
0.0 0.0 0.0
0.0 0.0 0.0
0.0 0.0 0.0
0.0 0.0 0.0
1.0 0.0 0.0
1.0 0.0 0.0
1.0 0.0 0.0
1.0 0.0 0.0
1.23885467975 -0.0558752448734 0.0
1.46692889194 -0.0384605333449 0.0
1.4370557926 -0.0178810941954 0.0
1.35944274832 -0.0325554059639 0.0
1.4359389364 0.0329822217619 0.0
1.41314157832 0.0315065139966 0.0
1.38184885561 0.0165934448178 0.0
1.43222186462 0.00169424340173 0.0
1.4076873401 -0.0328455051966 0.0
1.41051320878 -0.0278786977208 0.0
1.4294391303 0.00156739468211 0.0
1.39946054724 0.0192409299221 0.0
1.40547271821 0.0242735070737 0.0
1.46023809868 0.0242880707312 0.0
1.45870081846 -0.0254878498162 0.0
1.50684961852 -0.0216829691095 0.0
1.28797198368 0.00383334978689 0.0
1.10007431569 -0.0911527023427 0.0
1.35775714265 0.00988487537955 0.0
1.36401090972 0.0310387707829 0.0
1.31711846171 0.0284060647043 0.0
1.36122932073 -0.0228303615965 0.0
1.38800412134 -0.0107183630282 0.0
1.35875426646 0.0304620479685 0.0
1.37675954864 0.0507281890871 0.0
1.39710016012 -0.0152602297144 0.0
1.35545239421 -0.0304710385453 0.0
1.32127154658 -0.0495774738028 0.0
1.24534934334 -0.0688662720854 0.0
1.34182697333 0.0286143645419 0.0
1.3847865918 0.0109117683569 0.0
1.28275140629 0.010678924097 0.0
1.29399837572 0.00481627827555 0.0
1.34187742837 -0.0212481768987 0.0
1.37458535401 -0.0497552038961 0.0
1.22732521473 -0.00291595276719 0.0
1.24776884015 0.0327954462292 0.0
1.25997764263 0.0416932231191 0.0
1.23920752224 0.0479156548418 0.0
1.28578014421 0.0275678883362 0.0
1.27392393679 -0.0245841369005 0.0
1.20846643169 -0.0130627474866 0.0
1.19973360273 -0.0157276875752 0.0
1.27355966492 -0.0319551182775 0.0
1.17820890344 0.107067631837 0.0
1.26943201948 -0.0158151340201 0.0
1.24672278273 0.00742833096896 0.0
1.28227804621 -0.0414546185864 0.0
1.29033237686 0.0284138712834 0.0
1.24699216615 -0.0617575962465 0.0
1.1335451852 -0.0878907822468 0.0
1.22961986212 -0.0385882161624 0.0
1.14261238027 -0.0235066916664 0.0
1.17388360461 -0.0484683212678 0.0
1.23241493477 -0.0140338660514 0.0
1.18960278561 -0.00747158449097 0.0
1.24602377693 -0.00057815388392 0.0
1.07942930896 -0.0394088035798 0.0
1.13905519254 0.0358780051023 0.0
1.16740412283 0.0348128888756 0.0
1.20098857872 0.0504122466622 0.0
1.21118590213 0.0371858324737 0.0
1.16422300324 0.00283089933097 0.0
1.26628493033 0.00562473069163 0.0
1.22811396874 -0.0283920325081 0.0
1.19284621719 -0.0463262769613 0.0
1.21446218013 0.0362603743252 0.0
1.18076742043 0.00252039045106 0.0
0.828675874304 0.0125880850078 0.0
1.03935037451 0.0119613878489 0.0
0.93570966706 -0.0513692386856 0.0
0.92920823849 -0.0498135722842 0.0
1.02679704151 0.0160179546359 0.0
0.842063394609 0.0203010319401 0.0
0.863210791589 0.0346631743117 0.0
0.886536705216 0.043972434135 0.0
0.757787427092 -0.0341463619479 0.0
0.853546962089 -0.0255859954196 0.0
1.23497441143 0.0274823962219 0.0
1.05965748762 -0.0441514511638 0.0
0.956585834801 0.041348320749 0.0
1.18605084518 -0.0277373069979 0.0
1.01756154293 0.0118412815535 0.0
1.47508296236 -0.00998267259534 0.0
0.760201275597 -0.0105047744293 0.0
1.18569097453 0.0548698652669 0.0
1.48347652087 -0.0228294027802 0.0
1.13637710974 -0.0191601360443 0.0
0.904749460049 -0.0133919210109 0.0
0.936604156321 -0.0777032459004 0.0
0.812703194707 -0.0470458001417 0.0
1.07830362034 -0.0944346104933 0.0
0.870358561038 0.0122466982315 0.0
1.0507138541 0.052990466749 0.0
0.958995042959 -0.0568336105749 0.0
1.00391353227 -0.0234005771105 0.0
0.911277473313 -0.0544898652545 0.0
0.976121893444 -0.0360198657924 0.0
1.04101531133 -0.001542429408 0.0
0.858088036094 0.0025113990305 0.0
0.906627563367 0.0435950428833 0.0
1.01335649476 0.0296432624531 0.0
0.978988628914 0.0613279972537 0.0
0.756428267557 -0.00980492875731 0.0
0.959644497058 -0.0107623492352 0.0
0.845761853014 -0.0373839350376 0.0
0.913828300644 -0.0821480150595 0.0
0.889922357013 -0.0682454815459 0.0
0.913293230919 -0.0655250160065 0.0
0.753391863275 0.0311853045314 0.0
0.939607694807 0.00850615144999 0.0
1.46603548748 -0.00673516007769 0.0
1.47025841089 -0.0219458464379 0.0
0.879113546837 0.0308149427066 0.0
0.729678157468 0.0361644676256 0.0
1.48880917308 0.0220845487956 0.0
1.45674201635 0.0315943139836 0.0
0.74921730586 -0.0352682523155 0.0
0.875964949762 -0.0433481581922 0.0
0.922307114141 -0.0203295668013 0.0
0.70664483971 -0.00101414532069 0.0
0.787644296327 0.0397066494842 0.0
0.819194418457 0.049076623578 0.0
0.720421527223 -0.0161576542495 0.0
1.48472564927 -0.0297057362773 0.0
1.46691140301 -0.033254231858 0.0
1.46856915534 0.0132841774473 0.0
1.49012038253 -0.0197110192548 0.0
1.47338308851 0.0345833662351 0.0
1.47843455152 0.0230088479609 0.0
1.47473170569 -0.0114000005242 0.0
1.47400717892 -0.00328429529031 0.0
1.41745434045 0.00205535403403 0.0
1.35220245809 -0.044161108512 0.0
1.31786270952 -0.0494070066138 0.0
1.48609129154 -0.0372602732335 0.0
1.48419470556 -0.0528657252444 0.0
1.46048664055 0.017307877509 0.0
1.44736485294 0.023173770134 0.0
1.48915370579 0.0225729065834 0.0
1.44904492568 0.0486384045337 0.0
1.47277138346 0.0269198955195 0.0
1.46485200313 0.029563433844 0.0
1.45557374525 0.0298236386896 0.0
1.46493023275 -0.0203966191956 0.0
1.45311844559 -0.031485402425 0.0
1.44228292958 0.0122748175467 0.0
1.46961599689 -0.0279380136629 0.0
0.702276744655 0.0091737751651 0.0
0.858812421718 0.041497306932 0.0
0.744774513398 0.0365453396718 0.0
0.824269986166 0.064371576924 0.0
0.834369118048 0.0295195990102 0.0
0.880956114987 -0.0407538012184 0.0
0.744274680898 -0.0312761880376 0.0
0.704261944328 -0.00617412565392 0.0
0.921947561569 -0.0257842354141 0.0
0.936932617662 -0.00318063805342 0.0
0.824276588907 -0.0335065382382 0.0
1.19099030107 0.252899805378 0.0
0.839602667113 0.0112539589742 0.0
0.864794228263 -0.0381930507939 0.0
1.07891462553 -0.0530370453776 0.0
1.35539545554 -0.0364720937448 0.0
1.18096762032 -0.102014961765 0.0
0.795668311466 0.00590276870717 0.0
0.934349297105 0.0133489843373 0.0
0.812506111578 0.0507411025634 0.0
0.899756240088 0.0492195112976 0.0
0.840645869254 0.0751799835258 0.0
0.9056989902 -0.00752856603577 0.0
0.755778014371 -0.0176807631146 0.0
0.940062364622 -0.0351897300493 0.0
0.921014777377 -0.0203620140508 0.0
0.761445660403 -0.0332884648231 0.0
1.41468957454 -0.0258871846533 0.0
1.35487271218 -0.00920741628482 0.0
0.816529353281 0.0334720402617 0.0
1.42339723627 0.0347257618876 0.0
1.39010882963 0.0326363149285 0.0
0.856776369566 -0.0488806350641 0.0
0.9137343322 0.0646975509335 0.0
1.44336524506 0.0251180961495 0.0
1.40328402839 0.0128079366803 0.0
0.932101250478 0.0103354317683 0.0
0.793050351134 -0.00102999112595 0.0
1.42975966794 -0.0322637191019 0.0
1.42235014402 -0.026597272321 0.0
1.4370255449 0.0239521559208 0.0
1.40862511114 -0.0105764898564 0.0
0.8217476998 -0.0322501321427 0.0
1.43150194071 0.0227396579905 0.0
1.33999464491 0.0472954293121 0.0
1.37865483467 -0.0569097256214 0.0
1.26720464699 0.00564479147188 0.0
1.28262537785 -0.0305157177767 0.0
1.2456341532 -0.017608003393 0.0
1.25603443744 0.0426689848919 0.0
1.28723173102 0.0327219705309 0.0
1.2897815728 0.0111264817097 0.0
1.22348909784 0.03924540202 0.0
1.23315832024 0.000692355898971 0.0
1.29489065608 -0.00516713030095 0.0
1.23409372292 -0.0264081742394 0.0
1.27715307477 -0.0452575486974 0.0
1.28923579097 -0.0373782738846 0.0
1.25246047991 -0.0467682246126 0.0
1.24028154895 0.0140329787058 0.0
1.27108916914 0.0266214717226 0.0
1.28756252452 0.0380982197437 0.0
1.29322885318 0.0246673974204 0.0
1.2689853023 0.0175180956303 0.0
1.21628901317 -0.0807607685817 0.0
1.33569294766 -0.0312218684431 0.0
1.27747753939 0.0156664392405 0.0
1.25874768774 0.0382991981869 0.0
1.27625330353 -0.0449114673771 0.0
1.23789248238 -0.0216042046579 0.0
1.26776248047 0.0374593185238 0.0
1.34560532243 -0.0242612321177 0.0
1.21374027088 -0.00584629403484 0.0
1.29619751623 -0.0104980528072 0.0
1.34159747529 -0.0235807360451 0.0
1.35337500686 -0.0195936655478 0.0
0.963409832352 -0.140166049225 0.0
1.32666327123 0.00829496232981 0.0
1.2836613253 -0.0191843060074 0.0
1.48528736096 -0.0370074678692 0.0
1.48958208729 -0.00625664026171 0.0
1.30832206195 0.000184703778141 0.0
1.04524067801 0.107730947165 0.0
0.649999911022 -0.00367073108598 0.0
1.20725158948 0.1730835028 0.0
1.03482434783 -0.0644906710995 0.0
1.30270447044 -0.00148866723559 0.0
1.35722799059 -0.0346717755199 0.0
1.29714944885 -0.00319723588232 0.0
1.46483756901 -0.0176979698696 0.0
1.388459472 0.0199140591079 0.0
0.822806101856 0.12566810534 0.0
0.75799446766 0.0541315826655 0.0
1.01087944564 -0.0941356761866 0.0
0.939513395039 -0.100591193083 0.0
1.45755458305 0.0225398134876 0.0
1.43251657762 0.0560624184284 0.0
0.752611153584 0.0563531791919 0.0
0.596558541708 0.0217365998607 0.0
0.756304050355 0.0138656139567 0.0
1.47574788497 0.0221349089492 0.0
1.45124889771 -0.0255571442092 0.0
1.45575485628 -0.0257509191943 0.0
1.42451572857 0.037887475707 0.0
1.46335906742 -0.0170808252051 0.0
1.46860333636 -0.0362384159828 0.0
1.45414858432 0.0252301843391 0.0
1.470165557 0.0297593659539 0.0
0.635594362686 -0.0253496876099 0.0
0.697961607809 -0.0495747402081 0.0
1.47578657234 0.0247040343364 0.0
0.812299987339 0.0158968869845 0.0
0.571170472842 -0.0128259677848 0.0
0.675876245062 0.0507979311032 0.0
0.712554068181 0.0382274383928 0.0
0.701636305101 -0.044971607663 0.0
0.748888504713 -0.0505208155157 0.0
0.592418547623 -0.0182293260832 0.0
0.771151177324 -0.0524010767986 0.0
0.680972498427 0.0160129571909 0.0
0.759040944557 -0.0454966020244 0.0
0.57916176697 0.0360783460746 0.0
0.700842678844 0.031091523531 0.0
0.507233969264 0.0582703500217 0.0
1.07586802487 0.0433696551133 0.0
0.906727279368 -0.039196269973 0.0
0.52823442423 0.00480429908235 0.0

SCALARS scalar1 double
LOOKUP_TABLE default
3.97576023202
7.0685157801
4.11682004742
4.64080583459
-5.99758740403
-2.33144683557
8.48251630616
7.4985138294
5.52362686095
5.31233901032
5.78765951707
6.84825746523
7.78315877817
7.2907540557
6.07336572511
4.74125324082
4.16101640954
4.09811923258
4.29440736748
5.28305138877
6.27082521726
7.44152434026
7.53996581369
6.94257417284
5.86988256361
4.83306388411
4.13929695154
3.99180543895
4.52256348135
5.04310729101
7.38128710829
5.45160587178
9.19695550558
7.08414658159
6.41347645718
5.02857947528
4.21886203452
4.0830820684
4.17435823154
5.06492426811
6.07212693862
7.2550186939
7.51453696404
6.99053839419
5.96554402384
5.00429362404
3.89821700363
4.12238794185
4.78313702638
5.64169506458
6.88631595997
7.38193606449
7.76611924648
6.22857606336
3.62217322761
1.3572166873
-0.959886986322
-3.18465196148
-5.05361823409
-4.58982295217
-3.93146560054
-4.13872793686
-5.48848781855
-6.38305066792
-8.01303604966
-7.42108229649
-6.72397672297
-5.94455411063
-4.88689339825
-4.03726409679
-4.13688586518
-4.74413217302
-5.25530985514
-6.78972807467
-7.40184804185
-7.47193371068
-7.31121984271
-7.53428374464
-4.03491795468
-4.41624237097
-4.38861041023
-4.81520322436
-5.62967471726
-5.68220863952
-9.33747257485
-7.87756298689
-6.60830216945
-5.82503739613
-4.74663702411
-4.02393920342
-4.30589842917
-4.62670430783
-5.31982583828
-6.6108983674
-7.94803961849
-7.46121272512
-6.96089697157
-6.13193870895
-4.90583134033
-4.77995963421
-4.9591657392
-5.18284605859
-6.64280724204
-8.05175350224
-10.087375024
-12.5115700764
-13.0859021573
3.47431819311
0.0866300053784
-0.0313170072537
-1.75687675717
0.0505025063947
0.527136304483
0.792017342024
0.623047494916
0.853987190862
0.814021830224
1.16798716281
1.01331335318
1.12105988606
1.09525969128
1.0645390149
1.05637290769
1.11267894434
0.271065915795
0.366885241382
0.169223542288
2.28824058023
-0.615891872125
-1.70699643844
-1.45429901377
-1.75550401415
-1.56875081415
-1.40314793835
-1.56483890538
-1.25931037175
-1.35495906873
-1.56798376125
1.8974131792
1.14155941618
-1.17413125599
-1.51237752526
2.17874118921
1.6693400684
-0.207363776161
-1.61513052675
2.30668675213
2.34320608799
2.19822919451
2.20710836971
2.21503481363
2.13480234732
2.34110156581
2.32840681029
2.13328441013
1.12417830931
-2.28420157569
-2.15948644603
-2.05647778631
1.89289403908
2.09852079976
1.54643724744
2.50565356621
2.78532760689
2.09374803772
-2.51930868112
-2.17328987953
-1.55983620982
-3.19709710562
2.96739860811
2.58493593527
-2.46459000705
-2.37175535697
-2.6228354353
-2.23005881683
-2.51879879862
-2.58402963438
-2.42347171313
-2.54955208833
3.65544275121
3.46721560221
3.48663585959
3.50647589081
3.50083304346
3.72693759391
3.68855955673
3.85434344398
3.89096102183
-3.71252135287
-2.42182366499
-2.94746993792
-2.97080243429
2.2457163526
0.00569155144351
0.109147251917
-3.91879728519
-3.03489052413
0.163176803676
-0.0304668567582
3.9186526855
3.26597932018
3.93989039037
0.0115579392488
-3.56200218946
-3.41337811129
-3.61245584578
-3.23722592174
-3.62100160792
-3.5860335357
-3.49030967138
-3.69789455947
-3.67976063244
-3.50842813537
-3.45825982963
3.81512210527
3.55184133736
3.60034129355
3.32001006385
3.26115766862
3.60686632007
3.85278419307
3.5708785032
0.00294600725779
0.0575377291854
3.9324212768
3.83376578068
0.552565857169
0.632805438553
3.84934126558
3.89958081281
3.95508848958
3.86078695935
3.94065936072
3.9708456766
3.91606185084
0.605019075004
0.701633862658
0.604907536758
0.628804283471
0.311253972934
0.626787874914
0.407778752333
0.492412263625
0.49468649502
0.332131462121
0.213080145488
0.362659147749
0.280168923806
0.568064619603
0.450334039039
0.439477103331
0.592831498028
0.548440883393
0.691809286801
0.493631175936
0.693632801938
0.707760721905
0.749144581443
0.665011360786
3.85096143314
3.99056755561
3.98436183053
3.78629731229
3.86985266084
3.92863950452
3.87379996712
3.81884246923
3.93242349907
-3.67163548559
-3.61693587175
0.101983564047
-3.87186011782
-3.76112006004
-3.11421157317
1.8602114306
-0.226832558675
-4.0285592408
-4.09501908051
-3.84275023141
-3.84220073882
-4.02952453065
-4.2077581243
-3.91496091512
-3.98039494036
-3.99977394511
-3.95886684122
-1.25945319642
-0.267556284907
-3.78045180685
-1.15503218675
-0.867450993785
-3.69206469677
3.86011658225
-0.879276431516
-1.15029384815
3.98542380573
-3.78265658672
-1.03162419139
-1.1250912405
-1.06037888433
-1.1159824855
3.88954068128
-1.07118831297
-1.65279994149
-1.53902292068
2.00492529802
1.558912585
2.18682933874
2.4319531993
2.06611138999
2.13185960046
2.32360698457
2.42189387393
2.13772908819
2.24664143996
2.21190037069
1.89039112729
1.19382828959
2.40535863666
1.99620399287
2.13806239872
1.72491639053
2.08773710305
0.94032280883
1.75343914736
2.22140532492
2.30538481602
2.21944947728
2.27780729741
0.468968708957
-1.74568785966
2.43963648784
2.12525038226
-1.48817814489
-1.46923985706
4.28306752392
1.89827299443
2.06157776093
0.674817434574
0.616739709571
-2.02395360202
1.46535012227
-4.21083556875
-4.1967724349
-1.08514430704
2.32087114945
-1.60333082621
0.115618387637
-0.837882223783
-0.190501088925
-3.83520451858
4.63291975029
3.23050547014
-4.30896356412
-0.761988223288
-0.534332555705
-4.69792148658
-3.98547530746
-4.57029311146
-0.54057686169
-0.689900827144
-1.11691007447
-1.17821340721
-0.647911842912
-0.65330925215
-0.663325053171
-0.771317796117
-4.2270316177
-4.41341636167
-0.77429114537
-4.79817015178
-4.07902057668
-4.21182052527
-4.35349859353
4.06789171731
4.71548643254
4.03808692462
4.51792643312
-4.18776640571
-4.68973402767
4.23827942858
4.57482212278
4.82324522943
1.7477674476
-5.04623144614
-4.03610834289

SCALARS scalar2 double
LOOKUP_TABLE default
3.97576023202
7.0685157801
4.11682004742
4.64080583459
-5.99758740403
-2.33144683557
8.48251630616
7.4985138294
5.52362686095
5.31233901032
5.78765951707
6.84825746523
7.78315877817
7.2907540557
6.07336572511
4.74125324082
4.16101640954
4.09811923258
4.29440736748
5.28305138877
6.27082521726
7.44152434026
7.53996581369
6.94257417284
5.86988256361
4.83306388411
4.13929695154
3.99180543895
4.52256348135
5.04310729101
7.38128710829
5.45160587178
9.19695550558
7.08414658159
6.41347645718
5.02857947528
4.21886203452
4.0830820684
4.17435823154
5.06492426811
6.07212693862
7.2550186939
7.51453696404
6.99053839419
5.96554402384
5.00429362404
3.89821700363
4.12238794185
4.78313702638
5.64169506458
6.88631595997
7.38193606449
7.76611924648
6.22857606336
3.62217322761
1.3572166873
-0.959886986322
-3.18465196148
-5.05361823409
-4.58982295217
-3.93146560054
-4.13872793686
-5.48848781855
-6.38305066792
-8.01303604966
-7.42108229649
-6.72397672297
-5.94455411063
-4.88689339825
-4.03726409679
-4.13688586518
-4.74413217302
-5.25530985514
-6.78972807467
-7.40184804185
-7.47193371068
-7.31121984271
-7.53428374464
-4.03491795468
-4.41624237097
-4.38861041023
-4.81520322436
-5.62967471726
-5.68220863952
-9.33747257485
-7.87756298689
-6.60830216945
-5.82503739613
-4.74663702411
-4.02393920342
-4.30589842917
-4.62670430783
-5.31982583828
-6.6108983674
-7.94803961849
-7.46121272512
-6.96089697157
-6.13193870895
-4.90583134033
-4.77995963421
-4.9591657392
-5.18284605859
-6.64280724204
-8.05175350224
-10.087375024
-12.5115700764
-13.0859021573
3.47431819311
0.0866300053784
-0.0313170072537
-1.75687675717
0.0505025063947
0.527136304483
0.792017342024
0.623047494916
0.853987190862
0.814021830224
1.16798716281
1.01331335318
1.12105988606
1.09525969128
1.0645390149
1.05637290769
1.11267894434
0.271065915795
0.366885241382
0.169223542288
2.28824058023
-0.615891872125
-1.70699643844
-1.45429901377
-1.75550401415
-1.56875081415
-1.40314793835
-1.56483890538
-1.25931037175
-1.35495906873
-1.56798376125
1.8974131792
1.14155941618
-1.17413125599
-1.51237752526
2.17874118921
1.6693400684
-0.207363776161
-1.61513052675
2.30668675213
2.34320608799
2.19822919451
2.20710836971
2.21503481363
2.13480234732
2.34110156581
2.32840681029
2.13328441013
1.12417830931
-2.28420157569
-2.15948644603
-2.05647778631
1.89289403908
2.09852079976
1.54643724744
2.50565356621
2.78532760689
2.09374803772
-2.51930868112
-2.17328987953
-1.55983620982
-3.19709710562
2.96739860811
2.58493593527
-2.46459000705
-2.37175535697
-2.6228354353
-2.23005881683
-2.51879879862
-2.58402963438
-2.42347171313
-2.54955208833
3.65544275121
3.46721560221
3.48663585959
3.50647589081
3.50083304346
3.72693759391
3.68855955673
3.85434344398
3.89096102183
-3.71252135287
-2.42182366499
-2.94746993792
-2.97080243429
2.2457163526
0.00569155144351
0.109147251917
-3.91879728519
-3.03489052413
0.163176803676
-0.0304668567582
3.9186526855
3.26597932018
3.93989039037
0.0115579392488
-3.56200218946
-3.41337811129
-3.61245584578
-3.23722592174
-3.62100160792
-3.5860335357
-3.49030967138
-3.69789455947
-3.67976063244
-3.50842813537
-3.45825982963
3.81512210527
3.55184133736
3.60034129355
3.32001006385
3.26115766862
3.60686632007
3.85278419307
3.5708785032
0.00294600725779
0.0575377291854
3.9324212768