# vtk DataFile Version 2.0
2D Simulation Python
ASCII
DATASET UNSTRUCTURED_GRID
FIELD FieldData 1
NODES 1 2 int
386 659

POINTS 386 double
0.0 1.0 0.0
1.725 1.0091452768200502 0.0
8.275 0.9908547231799496 0.0
10.0 1.0 0.0
10.0 -2.617726993626728e-17 0.0
0.0 0.0 0.0
0.1916666666663293 1.0109702265381668 0.0
0.3833333333324708 1.0125217142518426 0.0
0.574999999998553 1.0033223978902788 0.0
0.7666666666645966 0.9912705608546324 0.0
0.9583333333312576 0.9867135833926065 0.0
1.149999999998384 0.9935639626979001 0.0
1.341666666665662 1.0059401489865636 0.0
1.533333333332819 1.0132162845434665 0.0
1.92348484848444 0.9967762474485955 0.0
2.121969696968978 0.9873586178291305 0.0
2.320454545453434 0.9895143864804817 0.0
2.518939393937826 1.001269910897051 0.0
2.717424242422235 1.0118628105008156 0.0
2.915909090906411 1.011595107309633 0.0
3.1143939393908 1.0007118881034183 0.0
3.312878787875129 0.989176923349627 0.0
3.511363636359531 0.9875506675405588 0.0
3.709848484843827 0.9973219852571691 0.0
3.90833333332816 1.0095450705712568 0.0
4.106818181812215 1.0130294830289428 0.0
4.305303030296804 1.0045851843442604 0.0
4.503787878781365 0.9919430721733639 0.0
4.702272727265711 0.9866772131143932 0.0
4.900757575750005 0.9936085898180892 0.0
5.099242424235156 1.0063914101810356 0.0
5.297727272720327 1.0133227868855375 0.0
5.496212121205663 1.0080569278273308 0.0
5.694696969690998 0.9954148156565091 0.0
5.89318181817668 0.9869705169712218 0.0
6.09166666666213 0.9904549294282873 0.0
6.290151515147423 1.0026780147422554 0.0
6.488636363633031 1.0124493324592605 0.0
6.687121212118713 1.0108230766506154 0.0
6.885606060604342 0.9992881118969076 0.0
7.084090909089381 0.9884048926905072 0.0
7.282575757574369 0.9881371894990794 0.0
7.481060606059355 0.9987300891027603 0.0
7.679545454544343 1.0104856135194256 0.0
7.878030303029329 1.0126413821709062 0.0
8.076515151514705 1.0032237525514605 0.0
8.46666666666447 0.9867837154565069 0.0
8.658333333329285 0.9940598510131322 0.0
8.84999999999549 1.0064360373017396 0.0
9.041666666661694 1.0132864166073436 0.0
9.233333333327899 1.0087294391457489 0.0
9.42499999999549 0.9966776021101086 0.0
9.616666666663775 0.9874782857482454 0.0
9.808333333331985 0.9890297734617686 0.0
10.0 0.7999999999999998 0.0
10.0 0.6000000000013869 0.0
10.0 0.4000000000016644 0.0
10.0 0.2000000000008322 0.0
9.799999999999999 -0.011279884961516745 0.0
9.6 -0.012088129213322498 0.0
9.399999999999999 -0.0016744021058164216 0.0
9.2 0.01029375018559112 0.0
8.999999999999998 0.012705736446335839 0.0
8.799999999999997 0.0033223978901847197 0.0
8.599999999999998 -0.009145276820050466 0.0
8.399999999999997 -0.013122966625551465 0.0
8.199999999999998 -0.004917997475120697 0.0
7.999999999999997 0.007852576975934063 0.0
7.799999999999997 0.013333239781801908 0.0
7.599999999999998 0.00643603730200472 0.0
7.399999999999997 -0.0064360373020050845 0.0
7.199999999999998 -0.013333239781801932 0.0
6.999999999999997 -0.007852576975933733 0.0
6.799999999999997 0.004917997475121078 0.0
6.599999999999998 0.013122966625551558 0.0
6.399999999999997 0.009145276820050162 0.0
6.199999999999998 -0.003322397890185033 0.0
5.999999999999997 -0.012705736446335948 0.0
5.799999999999998 -0.010293750185590936 0.0
5.599999999999998 0.0016744021058166484 0.0
5.399999999999999 0.012088129213322562 0.0
5.199999999999998 0.011279884961516629 0.0
4.999999999999999 -1.0801431582666808e-16 0.0
4.799999999999999 -0.011279884961516723 0.0
4.599999999999999 -0.01208812921332249 0.0
4.399999999999999 -0.0016744021058163867 0.0
4.199999999999999 0.010293750185591075 0.0
3.999999999999999 0.012705736446335875 0.0
3.799999999999999 0.003322397890184869 0.0
3.599999999999999 -0.009145276820050384 0.0
3.399999999999998 -0.013122966625551506 0.0
3.199999999999998 -0.004917997475120702 0.0
2.999999999999999 0.007852576975933964 0.0
2.799999999999998 0.013333239781801898 0.0
2.599999999999998 0.006436037302004706 0.0
2.399999999999999 -0.0064360373020049075 0.0
2.199999999999999 -0.013333239781801908 0.0
1.999999999999998 -0.00785257697593378 0.0
1.799999999999999 0.004917997475120934 0.0
1.6 0.013122966625551524 0.0
1.4 0.009145276820050357 0.0
1.199999999999999 -0.003322397890185006 0.0
0.9999999999999982 -0.012705736446335951 0.0
0.7999999999999989 -0.010293750185590995 0.0
0.6000000000000014 0.0016744021058164114 0.0
0.3999999999999986 0.012088129213322562 0.0
0.1999999999999993 0.011279884961516638 0.0
0.0 0.1999999999995579 0.0
0.0 0.3999999999989749 0.0
0.0 0.5999999999989468 0.0
0.0 0.7999999999994734 0.0
0.6588060023977531 0.543530291194918 0.0
9.341193987535162 0.5449992403883516 0.0
8.742499007379246 0.5640944324596089 0.0
1.2575006026896403 0.5637004054438365 0.0
8.164920216615828 0.5670198542424988 0.0
1.8350720640655278 0.5684078086597462 0.0
2.4280283332261385 0.5903947630818531 0.0
7.571883874569108 0.5936612354925848 0.0
3.0276953652508762 0.5982163414176737 0.0
6.971648907574319 0.5920283302903754 0.0
3.6256493048648224 0.5917464829585568 0.0
6.370261523441542 0.5890426143465629 0.0
4.226765126681151 0.5894326377339012 0.0
5.79643075337689 0.5213869435011024 0.0
4.800812960709037 0.5206315854491654 0.0
5.298644798793874 0.5254553886843352 0.0
9.677376673713784 0.6933983651959286 0.0
0.3226233256199824 0.7062998964657587 0.0
4.5285872837957015 0.32975139294737554 0.0
3.9161493581308626 0.3703609100507346 0.0
6.069591694097173 0.3296416736635752 0.0
3.31672290260198 0.36693377589938225 0.0
6.681986394816969 0.37069985236812725 0.0
7.881002157791462 0.36690874573832427 0.0
2.118971357206782 0.35825009650795353 0.0
2.7177394549635903 0.3740269042734363 0.0
7.282032740015924 0.3654088941802945 0.0
9.037674316658196 0.6759470561651025 0.0
0.9623256318833742 0.6644330134675562 0.0
1.5307203792550523 0.36087216619806306 0.0
8.469277728698875 0.3523835897226635 0.0
8.45973628403028 0.6706979664682206 0.0
1.5402622340872283 0.6816119223942304 0.0
0.9789676789316116 0.3581694956659632 0.0
9.021032235330983 0.36774729443762355 0.0
4.525269277543599 0.6826815211251498 0.0
3.9187852959135707 0.7013699147641662 0.0
6.071303004466217 0.6822625966586923 0.0
2.1163584748462814 0.681307219754988 0.0
7.883619751493141 0.6927896672962722 0.0
3.3207332345023923 0.693885301299319 0.0
6.677843270605021 0.70196570276504 0.0
2.7230598585432992 0.7044108290085337 0.0
7.276730503263736 0.6923201042391466 0.0
0.3329059216194514 0.30837580653783364 0.0
9.66709407720447 0.2975416437417213 0.0
5.581901774642848 0.32129382355894537 0.0
5.016340347780244 0.32018487002971574 0.0
5.509852499486555 0.6972428005910453 0.0
5.086704947243895 0.6962968647785365 0.0
0.6618823933541338 0.7332136630930008 0.0
9.33811760082193 0.7352210239010247 0.0
8.748440041099917 0.7375430507031026 0.0
1.2515597104538327 0.7370760306958748 0.0
8.671278610624316 0.2714035208077095 0.0
1.3287208037386442 0.27524290512732874 0.0
0.6803704497910685 0.23386938023824339 0.0
9.319629540128908 0.23753674596059468 0.0
8.171510710030121 0.7396612298684565 0.0
1.828484182198263 0.7422913478433922 0.0
8.08382848466912 0.27562188360021567 0.0
1.9161616641083694 0.27292036629253624 0.0
7.487101162068991 0.28038498293286 0.0
2.5127999834054515 0.28156435027098975 0.0
6.887217073320809 0.2810274305451792 0.0
3.1121662466092563 0.2831141820660245 0.0
6.28662447420344 0.2675751465181353 0.0
3.7114277135885887 0.28048388495870186 0.0
2.4210159952088595 0.8059138725078036 0.0
7.578934473467836 0.8113353739082334 0.0
3.019947061079253 0.814950373621878 0.0
6.979664830027792 0.8065558562231254 0.0
3.6166683915437643 0.8058502532507001 0.0
6.380835048698823 0.8117075679346438 0.0
4.215312862336346 0.8124112345746877 0.0
5.794210979513708 0.8359086546304366 0.0
4.801786574630021 0.8350524526489429 0.0
5.299488023029789 0.1928733447603938 0.0
4.311914481007372 0.26814057163273936 0.0
4.741963342716066 0.22823775012906067 0.0
5.856721031684185 0.22894135636616478 0.0
5.298238967512542 0.7237334713152893 0.0
0.19490051333064726 0.5055367747996473 0.0
9.805099486243728 0.4978000787699566 0.0
9.48693610261352 0.15772296397034502 0.0
0.5130638949195936 0.16566675950257748 0.0
9.568852327727033 0.5072946998836224 0.0
0.43114766989850667 0.5149681511341003 0.0
9.50909806335182 0.8304359506252231 0.0
0.4909019354509063 0.8409670698867859 0.0
9.823641859288545 0.8202994171343159 0.0
0.17635814060351815 0.8346875332258479 0.0
7.691950799513058 0.1948395554481511 0.0
2.3080147735951 0.18446845520018734 0.0
8.877079799421947 0.19405854687091212 0.0
1.1229200536089698 0.18624165780393612 0.0
7.0923069041209805 0.18589037965909727 0.0
2.907447508224133 0.19780087711823455 0.0
6.49239393404524 0.19277829561210472 0.0
3.5068861706482863 0.18588105461378338 0.0
1.7123605160690192 0.19022430062378518 0.0
8.287636538459942 0.18115297982149714 0.0
4.106605712844806 0.1930165505478792 0.0
8.578315372931831 0.8209637163885929 0.0
1.4216841316818625 0.8318688244923815 0.0
8.923708737506974 0.8304633210350163 0.0
1.076291197267293 0.8188699443862624 0.0
0.8417338914895209 0.8171578210786784 0.0
9.158266093295252 0.8302047875699113 0.0
8.346837932435099 0.8206230122128643 0.0
1.6531604411558314 0.833786012774724 0.0
5.593157786762308 0.5039031161591929 0.0
5.0042028109443555 0.5029534054301567 0.0
7.790623751577193 0.8442825387812009 0.0
2.20935726122956 0.8286541673074761 0.0
7.779240537976444 0.5508123169980257 0.0
2.2207177924948707 0.5417377813535927 0.0
2.813880455728753 0.849774569553136 0.0
7.1859471560769945 0.8328313950540718 0.0
3.4104871942211807 0.8333892500501311 0.0
6.588352871891818 0.847929675789989 0.0
4.007691993519225 0.8476118110674801 0.0
5.985667812987521 0.8337216433203655 0.0
4.610330135854733 0.8339979234949135 0.0
7.177835097575968 0.5486798617932827 0.0
2.8218121435657593 0.5589171635881341 0.0
6.5777820430616 0.5540574100146349 0.0
3.4200035360997574 0.5495774833336875 0.0
5.9797519602569915 0.5226652668680009 0.0
4.019450696584455 0.5538907900263002 0.0
4.617485759194261 0.522534418319371 0.0
8.550466105895378 0.5328906804097518 0.0
[...]
POINT_DATA 386
VECTORS vector double
1.0 0.0 0.0
0.0 0.0 0.0
0.0 0.0 0.0
0.0 0.0 0.0
0.0 0.0 0.0
1.0 0.0 0.0
0.0 0.0 0.0
0.0 0.0 0.0
0.0 0.0 0.0
0.0 0.0 0.0
0.0 0.0 0.0
0.0 0.0 0.0
0.0 0.0 0.0
0.0 0.0 0.0
0.0 0.0 0.0
0.0 0.0 0.0
0.0 0.0 0.0
0.0 0.0 0.0
0.0 0.0 0.0
0.0 0.0 0.0
0.0 0.0 0.0
0.0 0.0 0.0
0.0 0.0 0.0
0.0 0.0 0.0
0.0 0.0 0.0
0.0 0.0 0.0
0.0 0.0 0.0
0.0 0.0 0.0
0.0 0.0 0.0
0.0 0.0 0.0
0.0 0.0 0.0
0.0 0.0 0.0
0.0 0.0 0.0
0.0 0.0 0.0
0.0 0.0 0.0
0.0 0.0 0.0
0.0 0.0 0.0
0.0 0.0 0.0
0.0 0.0 0.0
0.0 0.0 0.0
0.0 0.0 0.0
0.0 0.0 0.0
0.0 0.0 0.0
0.0 0.0 0.0
0.0 0.0 0.0
0.0 0.0 0.0
0.0 0.0 0.0
0.0 0.0 0.0
0.0 0.0 0.0
0.0 0.0 0.0
0.0 0.0 0.0
0.0 0.0 0.0
0.0 0.0 0.0
0.0 0.0 0.0
0.965678478599 0.0941042163322 0.0
1.32320623564 -0.00523510251832 0.0
1.31015733923 -0.0070684299 0.0
1.07335376678 -0.0715031151611 0.0
0.0 0.0 0.0
0.0 0.0 0.0
0.0 0.0 0.0
0.0 0.0 0.0
0.0 0.0 0.0
0.0 0.0 0.0
0.0 0.0 0.0
0.0 0.0 0.0
0.0 0.0 0.0
0.0 0.0 0.0
0.0 0.0 0.0
0.0 0.0 0.0
0.0 0.0 0.0
0.0 0.0 0.0
0.0 0.0 0.0
0.0 0.0 0.0
0.0 0.0 0.0
0.0 0.0 0.0
0.0 0.0 0.0
0.0 0.0 0.0
0.0 0.0 0.0
0.0 0.0 0.0
0.0 0.0 0.0
0.0 0.0 0.0
0.0 0.0 0.0
0.0 0.0 0.0
0.0 0.0 0.0
0.0 0.0 0.0
0.0 0.0 0.0
0.0 0.0 0.0
0.0 0.0 0.0
0.0 0.0 0.0
0.0 0.0 0.0
0.0 0.0 0.0
0.0 0.0 0.0
0.0 0.0 0.0
0.0 0.0 0.0
0.0 0.0 0.0
0.0 0.0 0.0
0.0 0.0 0.0
0.0 0.0 0.0
0.0 0.0 0.0
0.0 0.0 0.0
0.0 0.0 0.0
0.0 0.0 0.0
0.0 0.0 0.0
0.0 0.0 0.0
0.0 0.0 0.0
0.0 0.0 0.0
1.0 0.0 0.0
1.0 0.0 0.0
1.0 0.0 0.0
1.0 0.0 0.0
1.22922078195 -0.0220289653945 0.0
1.3112101074 -0.0465889767211 0.0
1.31943898559 0.0103399702013 0.0
1.29910491098 0.0413494554178 0.0
1.3130738344 -0.0426537944139 0.0
1.30980218056 -0.014006167969 0.0
1.31462408155 0.0262505828902 0.0
1.30300510711 0.027710240631 0.0
1.29196429733 -0.0250489841406 0.0
1.30234386404 -0.0332801681224 0.0
1.31926839525 0.0129399938912 0.0
1.27510615319 0.0318980330981 0.0
1.28896268302 -0.0210003158853 0.0
1.26911848651 -0.0203641286908 0.0
1.29290768417 0.0162718400107 0.0
1.28311398883 -0.0141987844211 0.0
1.26179491643 -0.0317025639879 0.0
1.06524051848 -0.0713224481436 0.0
1.21448490572 -0.0207431696686 0.0
1.27162516883 0.0283744273035 0.0
1.18991156882 0.0284158319802 0.0
1.25852908895 -0.0194609862609 0.0
1.26820010508 -0.0122387906572 0.0
1.27053898477 -0.0102961357622 0.0
1.26093394263 -0.00473580027551 0.0
1.2823336736 0.0272953902554 0.0
1.23529591701 0.00799757039878 0.0
1.25552925261 0.00229853347176 0.0
1.26456652924 0.00659830090801 0.0
1.3034910405 0.0364110001019 0.0
1.24000382238 -0.0199757833204 0.0
1.31273113817 -0.0135940805517 0.0
1.24495694951 0.0297846501968 0.0
1.27774254695 0.0310552475763 0.0
1.29784116127 -0.00810117636205 0.0
1.27363347626 -0.0247222760091 0.0
1.21597932604 0.0406814841656 0.0
1.25890205201 0.0351746583306 0.0
1.27760342388 -0.000702927704551 0.0
1.23388906834 -0.0151937456252 0.0
1.26468100612 -0.0228450578975 0.0
1.20127433597 -0.0115884887352 0.0
1.20527109835 0.0354197965447 0.0
1.27637784949 0.0174142196899 0.0
1.21173998809 0.118772991859 0.0
1.23510851157 -0.0357599528894 0.0
1.19576940681 -0.0449604411812 0.0
1.18176200042 0.0223264400396 0.0
1.1742918718 -0.0220097991966 0.0
1.1949608177 0.0136885016975 0.0
1.14586409636 -0.0785966839707 0.0
1.17788280148 -0.0612140968189 0.0
1.20055764801 0.0295808812297 0.0
1.17364171383 0.0498669502615 0.0
1.1397029171 0.0350605398917 0.0
1.20193592988 0.0586982121271 0.0
1.20970578394 -0.0231418085096 0.0
1.16870689238 -0.0495012161659 0.0
1.2123489721 -0.0677498980803 0.0
1.177847716 -0.0354282117424 0.0
1.16280335683 -0.0373362216546 0.0
1.17376625058 -0.0419033137245 0.0
1.14291551652 0.0550085900178 0.0
1.17161581563 0.0324060948392 0.0
1.16075251054 -0.0320426308428 0.0
1.17546186985 -0.0435534514891 0.0
1.15590443115 0.071047588181 0.0
1.15725220975 0.0227015013817 0.0
1.07701584521 0.0480806230168 0.0
1.08474431321 0.0600293861259 0.0
1.07669611286 -0.0502993570745 0.0
1.11127048691 -0.0677830713216 0.0
1.08961622519 0.0378740976775 0.0
1.09003178279 0.0505596883552 0.0
1.08339254587 -0.0395116534041 0.0
1.01964109001 -0.041296415569 0.0
1.0372922752 0.0357880720664 0.0
1.02561808653 -0.00437133822045 0.0
1.16927133237 -0.0353142352737 0.0
0.98596452328 -0.0301951536906 0.0
1.02279171352 0.0030180219995 0.0
1.14333399158 -0.00729758223939 0.0
1.03403390119 0.0200302487361 0.0
1.34146814289 -0.0177473103846 0.0
0.944586644335 -0.0518564971846 0.0
1.11808256026 0.0250300791037 0.0
1.34171005336 -0.0425351161262 0.0
1.1425356164 -0.00298132085679 0.0
0.924101150506 -0.0650361724636 0.0
0.982443689329 -0.0866356265442 0.0
0.87457838478 -0.0580230387801 0.0
1.01547823677 -0.096746730339 0.0
0.988372722621 0.028153238925 0.0
0.966422208466 0.0223784469702 0.0
1.0205810433 0.0243203648108 0.0
1.04123495353 0.0576694395945 0.0
0.961186586935 -0.0326922001772 0.0
0.998999084006 -0.00154096365543 0.0
0.999509024305 0.019397178352 0.0
0.959792333819 0.00618226736806 0.0
1.00462690116 -0.00857942556879 0.0
0.951519967787 -0.0527528642388 0.0
0.989659620078 0.0138281865491 0.0
1.0052671943 0.00701069199274 0.0
0.943046593713 0.0534291266432 0.0
0.956192759494 0.0407081067807 0.0
0.966799926189 0.0145446653776 0.0
0.979309656792 -0.0244963560861 0.0
0.954364126252 -0.027414447215 0.0
1.02723734765 -0.024017760026 0.0
0.960477949701 -0.0119188264834 0.0
1.26989848526 -0.051462682609 0.0
1.27825042866 0.0355433362238 0.0
0.988797656395 0.00364996386777 0.0
0.99948415082 0.0178957505765 0.0
1.3170609411 0.0130570101048 0.0
1.33604649432 0.00947682953839 0.0
0.975109819824 0.0128722664966 0.0
1.01697895701 -0.0208320392422 0.0
1.01142863131 -0.0058170770689 0.0
1.00210209428 -0.00289546060322 0.0
0.982594461638 0.0301929813357 0.0
1.02685761349 0.0196308231881 0.0
1.03172837424 -0.0261802163187 0.0
1.32876762632 -0.00644693316219 0.0
1.31127407157 0.00222144583746 0.0
1.29617210198 0.0146527915436 0.0
1.33235587372 -0.00931644735306 0.0
1.27977591764 0.0158253053076 0.0
1.30950732387 0.00597323566833 0.0
1.32262181033 -0.00782971861639 0.0
1.32727338889 -0.00121911835545 0.0
1.32171345946 0.0431861104153 0.0
1.30197042007 0.0325974532864 0.0
1.28828451645 0.00212919058845 0.0
1.32884917663 0.00508250566018 0.0
1.3216436508 -0.0265361989104 0.0
1.32245505957 -0.0247046149596 0.0
1.32590009291 0.00974370858707 0.0
1.33549569544 -0.0345547422814 0.0
1.33190512879 -0.00823974052069 0.0
1.31337824609 -0.0279686170455 0.0
1.31383957687 0.0356946156326 0.0
1.27909253272 0.0413449426421 0.0
1.32541665735 -0.0208363028471 0.0
1.2928340507 -0.0279982459233 0.0
1.31455122821 0.0403207745354 0.0
1.31695572603 0.0238371353547 0.0
1.01329563434 -0.0713717813294 0.0
0.976065937328 0.0561428368063 0.0
1.02082860697 0.0728530071759 0.0
1.00831421495 -0.022075228266 0.0
1.02540946323 -0.0646343730862 0.0
1.00514150449 -0.0614049943814 0.0
1.01810879736 -0.0474841832121 0.0
0.96521670847 0.0503803070518 0.0
1.00613025171 0.0554793090567 0.0
0.963575576143 0.0784020402159 0.0
1.01406609933 -0.105287155866 0.0
1.25447570868 0.229150815653 0.0
0.986536897276 -0.0100069362126 0.0
1.01873537547 0.00282167199334 0.0
1.03943560815 -0.0182267243731 0.0
1.27509144303 -0.0689049222708 0.0
1.16089821831 -0.070193069267 0.0
0.940828225069 0.0266198177579 0.0
0.882675060228 0.00966525270643 0.0
0.889574552733 -0.00310995346269 0.0
0.869814887518 -0.0369959286487 0.0
0.883410814543 0.0689809457412 0.0
0.815933109393 -0.0633828032451 0.0
0.884333401662 0.0333757873563 0.0
0.914660272052 0.0255934717761 0.0
0.902750721132 -0.018899207205 0.0
0.868440515062 -0.0480973389484 0.0
1.29035361228 0.0188483101332 0.0
1.28364380392 0.0501035930345 0.0
0.908314807547 0.0349525888773 0.0
1.27148792619 -0.0366143656613 0.0
1.31436355813 -0.00891258497862 0.0
0.974081272824 0.0391902721406 0.0
1.06312822855 0.157763182629 0.0
1.28507513176 0.0123789945239 0.0
1.28780291303 0.0331016564088 0.0
1.00911106766 -0.0796723150931 0.0
0.998506194412 -0.0512922766013 0.0
1.30584314618 -0.0152089621099 0.0
1.26632952331 -0.0155212286608 0.0
1.2807887863 0.0391495177393 0.0
1.27700187033 -0.0030737939225 0.0
1.02967499513 0.0837607772242 0.0
1.29869466909 -0.0101876764505 0.0
1.21739922576 -0.0192512898505 0.0
1.22031851172 -0.00374235874525 0.0
1.29403695834 0.0122442297991 0.0
1.23707759205 0.0390655809294 0.0
1.29118307954 0.0154467035432 0.0
1.22103415981 -0.00294326051108 0.0
1.26173691033 -0.00845970379937 0.0
1.2338535041 0.0288450880887 0.0
1.27585161634 0.015701481224 0.0
1.21611590892 0.027159980472 0.0
1.28840727643 -0.00594330098424 0.0
1.21618002295 -0.0102487770893 0.0
1.28071620784 -0.0224253521502 0.0
1.25687357985 0.0101434675769 0.0
1.25924957062 0.0391705069493 0.0
1.2527255043 -0.0364535257358 0.0
1.27608681822 -0.0274088791212 0.0
1.25868675301 -0.0369252517006 0.0
1.23694271119 0.00491388096962 0.0
1.30001578319 -0.0535224680099 0.0
1.23700632984 -0.0398887236237 0.0
1.23844043905 -0.0270691242657 0.0
1.25585787556 0.0498431606282 0.0
1.24737559323 0.0391329772032 0.0
1.25192912789 -0.0391439165014 0.0
1.23414000038 -0.0520679043426 0.0
1.27783807693 0.0458461573554 0.0
1.2896572724 -0.0375271401447 0.0
1.24040432813 0.05434768216 0.0
1.27286147303 0.0347526852271 0.0
1.24825993704 -0.0353910167837 0.0
1.24255875479 0.0103983082077 0.0
1.05252695501 -0.153098934843 0.0
1.24908766719 -0.0528802560874 0.0
1.28121414171 0.0516419149408 0.0
1.29418741926 0.00440769381467 0.0
1.2878097737 -0.0256016321252 0.0
1.24706710405 -0.00281818928553 0.0
1.08473406961 0.11101752118 0.0
0.823440672502 -0.030759457644 0.0
1.17353584423 0.151831358709 0.0
0.996150908738 -0.0690886262875 0.0
1.29289831415 -0.0127879040986 0.0
1.29285632968 -0.03749940369 0.0
1.25726325312 0.0102113450019 0.0
1.29580276576 -0.00104311510114 0.0
1.30750911862 0.0626601991206 0.0
0.949543994828 0.0818341317144 0.0
0.783675260445 0.00444455368432 0.0
1.00882767889 -0.103385492723 0.0
0.876957926648 -0.0970522461487 0.0
1.2950430481 -0.0430150866688 0.0
1.31228311805 -0.0060675675605 0.0
0.692710165717 0.000259127496392 0.0
0.754781821549 0.0521296514449 0.0
0.751729116385 0.0315733413993 0.0
1.30349096888 0.0440147272955 0.0
1.29121611958 0.0223456429747 0.0
1.27282274229 -0.015250208532 0.0
1.25214455015 0.00297542113635 0.0
1.30905811119 -0.01524205909 0.0
1.28544888562 -0.0374995763816 0.0
1.29525685689 0.0363362362347 0.0
1.27497481985 0.0472568015131 0.0
0.730786412734 -0.026190456029 0.0
0.744248054678 -0.0655706646269 0.0
1.30965192622 -0.0199944364265 0.0
0.759807723871 0.0578387612472 0.0
0.759066252068 0.0426841913721 0.0
0.730765462343 -0.0298918243779 0.0
0.725156809145 -0.0643797505572 0.0
0.814469743042 -0.0634723021785 0.0
0.775467899183 -0.0772851662765 0.0
0.796501584104 0.0451291911748 0.0
0.773700808958 0.0515715054855 0.0
0.825232818066 0.0920936473973 0.0
0.786361017368 0.0220109287448 0.0
0.860272567579 -0.0645746510042 0.0
0.81751707532 -0.0509789829641 0.0
0.562479980077 0.050782445847 0.0
0.974644808021 -0.0170748610405 0.0
0.802644882135 -0.0627590572723 0.0
0.738746620723 -0.015365801788 0.0

SCALARS scalar1 double
LOOKUP_TABLE default
1.91951714662
6.62257003738
7.82485200823
5.32195963783
-7.19598871917
-2.60946109547
8.27221394604
8.53748982509
7.06829287266
7.24258226398
6.74171555931
6.91589360803
6.38750215434
6.02402187861
7.49526367565
7.42715248784
7.15801303079
6.91189348605
6.93090719116
6.7233803001
7.01999601497
7.92649186756
7.42475905272
7.09482603144
7.02938313998
6.6286598301
6.79429184106
7.89296097199
8.2725809014
7.96624365885
9.26729900018
5.18772266075
9.0106428958
7.67666993342
8.14605398101
8.01104165965
6.92616536435
6.80408441471
7.30375445727
7.32815002779
7.49106345763
7.92683845099
7.03519851524
6.65689776476
6.84174249974
7.49518618048
7.1376423541
7.25279734724
6.45265202732
5.96783655311
6.28750782754
6.90327895705
7.23621742507
6.56328047069
3.31684771362
0.387871852664
-0.331954511398
-2.19916315172
-7.13930288269
-7.00859690529
-6.68873752457
-6.82184453843
-6.96650418496
-6.72622255909
-6.74427767007
-6.02294150852
-5.86199328556
-6.95171506985
-6.72762479616
-6.62486111227
-6.47818746639
-5.91612561595
-5.77532124897
-6.92706384995
-6.93234084411
-6.79252550896
-6.97756395755
-8.18625718526
-5.53913846965
-7.05912093028
-7.06208131155
-6.93863725356
-6.61835856042
-5.04107171871
-7.37479435294
-6.2648636909
-6.3790179943
-6.94643481487
-6.93155011148
-5.78244911213
-5.75958029679
-6.20010377226
-6.36942213285
-6.8106619336
-7.05045623122
-5.91990817168
-5.87956572365
-6.26310120201
-6.52976704695
-7.08512300561
-7.90431039124
-6.51969294076
-6.51323700944
-6.3403755366
-7.92917053067
-10.6344941575
-12.681238442
3.48370997477
0.101127738055
-0.0169309420346
-1.50036086921
0.0910525779459
0.0916418839714
0.0770621214936
0.172763171639
0.0121535049544
0.148749948571
0.184608146837
0.0639755901295
0.149724520394
0.0691979560252
0.119133848698
0.0403426515889
0.0999501698109
0.0362720237297
-0.0518314811761
-0.0813657208042
1.24185908394
-0.14536451499
-0.860076900627
-0.521133803839
-0.414516363318
-0.627467938081
-0.452553488231
-0.625905907298
-0.654692187115
-0.524809052176
-0.582514933835
0.758461566023
0.744637962136
-0.53460861818
-0.6514863571
0.709160887047
0.784816697557
-0.126519964813
-0.542972050908
0.706245869894
0.775962236574
0.345315287548
0.826957394737
0.614011129602
0.825093035624
0.569350734683
0.813565833473
0.833858189852
1.18898375765
-0.975597561887
-0.738266083273
-0.879755831371
0.45120569174
0.294851134413
1.12710647748
1.39430353006
1.63619337214
1.63969930351
-1.4065579503
-1.35651998856
-2.00420801409
-2.13850494187
1.27014332554
1.38899612194
-1.70861869849
-1.7006950933
-1.39019183186
-1.4353446507
-1.47684632188
-1.62092335034
-1.41511711001
-1.38814932517
2.80503170449
2.33813049734
2.00406499439
2.40842299456
2.95371864449
1.96812794413
1.85723365067
3.51994729405
3.8152300876
-3.07057529521
-1.83849665444
-1.79453277713
-1.28915754495
0.386563773182
0.107699097226
-0.00902692800077
-3.36684548201
-4.11259568859
0.0433716090307
0.092048041027
3.63338603471
2.26527206055
4.41481271156
0.288886010353
-3.1537227338
-2.54849780493
-2.92697036088
-2.24781784013
-2.3812911046
-3.34503848005
-3.35132976702
-2.49097301153
-3.53340141028
-2.65822387492
-3.40261094818
3.63632434503
2.86045964919
2.86768458566
3.579653111
3.51556629456
2.49286179197
3.63916709874
2.48600139374
-0.0233706216531
-0.121553568799
2.33027652882
3.75445553813
-0.0678204966306
0.0830365950619
2.41079509198
4.00503994219
3.8852525279
2.22591180104
2.45985313598
3.85274385722
3.82158932968
0.00659328148483
0.00363412600579
-0.0315242420453
0.0367422661064
0.0256769937726
-0.0373823943112
-0.018141938972
-0.0120732222316
0.0760030259707
0.119085892631
0.139310133273
-0.0246958132541
-0.0304969761018
0.0477801609626
0.0277993096352
-0.0361110143919
0.0985228752276
-0.0783855923146
0.0238355696841
0.00511117332534
0.0853815443534
-0.0210040110167
0.0666423686538
-0.00896116903781
3.12461280198
3.05519060529
3.3401332181
3.32712089309
2.32575374037
3.44529552395
2.39805522262
2.85827801807
3.80632047062
-2.45928551305
-2.35234935062
0.0494502746176
-2.93423349268
-3.37361638064
-2.51027395433
0.831470372573
0.029401231105
-4.16825131058
-2.7699050859
-4.13835750099
-3.30208254835
-3.1496991757
-4.07165251968
-2.72756764817
-3.78187313373
-3.95164002885
-3.3797348573
-0.475819227694
-0.153545072891
-3.58053618871
-0.500964600078
-0.311981328612
-2.94618130182
2.5440640004
-0.364417968951
-0.47291165195
2.90136481188
-3.07645563527
-0.275936655845
-0.387750917649
-0.337103964791
-0.357601436766
3.21485148711
-0.283453410681
-0.358172931157
-0.580319360163
0.582874376377
0.866685050197
0.461620537071
0.615622918922
0.442601990859
0.859051671733
0.802546271635
0.750135559668
0.73927789994
0.68356822255
1.05279900744
0.833209583389
0.628095737715
0.873354905627
0.807526759427
0.455245095297
0.633557054313
0.695366284103
0.693954274452
0.599537487958
1.11422540602
0.373268148176
0.986937792549
0.543618756796
0.550946469875
-0.414278467517
1.11410410105
0.702960125945
-0.219303975846
-0.439047248893
2.64365213551
0.453222458846
0.221834057181
-0.0243941517897
0.0322640999261
-0.852577932675
1.86754899721
-3.55900648549
-5.16510807461
-0.384243195405
1.08672159626
-0.34299569485
0.175926383401
-0.343135862303
-0.131803750797
-2.90892993546
5.3009075542
2.51532701717
-3.50824017732
-0.336650055335
-0.185538936766
-5.02162121075
-3.69180162306
-4.39646012253
-0.21348517714
-0.319956409752
-0.439341676573
-0.150404243493
-0.16344756188
-0.216113705539
-0.222609948274
-0.188105719394
-4.52538586315
-4.11626889027
-0.190432071087
-3.95220849317
-3.8828326151
-4.43770468233
-4.5340252496
4.19217590343
3.86052027056
4.53749832049
4.47543191585
-4.33467664132
-3.69252482874
4.40261585939
3.84993356622
5.64921426137
1.25336694155
-4.50000141107
-4.98795040376

SCALARS scalar2 double
LOOKUP_TABLE default
1.91951714662
6.62257003738
7.82485200823
5.32195963783
-7.19598871917
-2.60946109547
8.27221394604
8.53748982509
7.06829287266
7.24258226398
6.74171555931
6.91589360803
6.38750215434
6.02402187861
7.49526367565
7.42715248784
7.15801303079
6.91189348605
6.93090719116
6.7233803001
7.01999601497
7.92649186756
7.42475905272
7.09482603144
7.02938313998
6.6286598301
6.79429184106
7.89296097199
8.2725809014
7.96624365885
9.26729900018
5.18772266075
9.0106428958
7.67666993342
8.14605398101
8.01104165965
6.92616536435
6.80408441471
7.30375445727
7.32815002779
7.49106345763
7.92683845099
7.03519851524
6.65689776476
6.84174249974
7.49518618048
7.1376423541
7.25279734724
6.45265202732
5.96783655311
6.28750782754
6.90327895705
7.23621742507
6.56328047069
3.31684771362
0.387871852664
-0.331954511398
-2.19916315172
-7.13930288269
-7.00859690529
-6.68873752457
-6.82184453843
-6.96650418496
-6.72622255909
-6.74427767007
-6.02294150852
-5.86199328556
-6.95171506985
-6.72762479616
-6.62486111227
-6.47818746639
-5.91612561595
-5.77532124897
-6.92706384995
-6.93234084411
-6.79252550896
-6.97756395755
-8.18625718526
-5.53913846965
-7.05912093028
-7.06208131155
-6.93863725356
-6.61835856042
-5.04107171871
-7.37479435294
-6.2648636909
-6.3790179943
-6.94643481487
-6.93155011148
-5.78244911213
-5.75958029679
-6.20010377226
-6.36942213285
-6.8106619336
-7.05045623122
-5.91990817168
-5.87956572365
-6.26310120201
-6.52976704695
-7.08512300561
-7.90431039124
-6.51969294076
-6.51323700944
-6.3403755366
-7.92917053067
-10.6344941575
-12.681238442
3.48370997477
0.101127738055
-0.0169309420346
-1.50036086921
0.0910525779459
0.0916418839714
0.0770621214936
0.172763171639
0.0121535049544
0.148749948571
0.184608146837
0.0639755901295
0.149724520394
0.0691979560252
0.119133848698
0.0403426515889
0.0999501698109
0.0362720237297
-0.0518314811761
-0.0813657208042
1.24185908394
-0.14536451499
-0.860076900627
-0.521133803839
-0.414516363318
-0.627467938081
-0.452553488231
-0.625905907298
-0.654692187115
-0.524809052176
-0.582514933835
0.758461566023
0.744637962136
-0.53460861818
-0.6514863571
0.709160887047
0.784816697557
-0.126519964813
-0.542972050908
0.706245869894
0.775962236574
0.345315287548
0.826957394737
0.614011129602
0.825093035624
0.569350734683
0.813565833473
0.833858189852
1.18898375765
-0.975597561887
-0.738266083273
-0.879755831371
0.45120569174
0.294851134413
1.12710647748
1.39430353006
1.63619337214
1.63969930351
-1.4065579503
-1.35651998856
-2.00420801409
-2.13850494187
1.27014332554
1.38899612194
-1.70861869849
-1.7006950933
-1.39019183186
-1.4353446507
-1.47684632188
-1.62092335034
-1.41511711001
-1.38814932517
2.80503170449
2.33813049734
2.00406499439
2.40842299456
2.95371864449
1.96812794413
1.85723365067
3.51994729405
3.8152300876
-3.07057529521
-1.83849665444
-1.79453277713
-1.28915754495
0.386563773182
0.107699097226
-0.00902692800077
-3.36684548201
-4.11259568859
0.0433716090307
0.092048041027
3.63338603471
2.26527206055
4.41481271156
0.288886010353
-3.1537227338
-2.54849780493
-2.92697036088
-2.24781784013
-2.3812911046
-3.34503848005
-3.35132976702
-2.49097301153
-3.53340141028
-2.65822387492
-3.40261094818