# vtk DataFile Version 2.0
2D Simulation Python
ASCII
DATASET UNSTRUCTURED_GRID
FIELD FieldData 1
NODES 1 2 int
386 659

POINTS 386 double
0.0 1.0 0.0
1.725 1.0224441449031052 0.0
8.275 0.9775558550968946 0.0
10.0 1.0 0.0
10.0 -6.424370209649418e-17 0.0
0.0 0.0 0.0
0.1916666666663293 1.0269228978944298 0.0
0.3833333333324708 1.0307305262195536 0.0
0.574999999998553 1.008153758616875 0.0
0.7666666666645966 0.9785763951210398 0.0
0.9583333333312576 0.9673927574367593 0.0
1.149999999998384 0.9842048134077884 0.0
1.341666666665662 1.0145781879787579 0.0
1.533333333332819 1.032435125935598 0.0
1.92348484848444 0.9920883346869448 0.0
2.121969696968978 0.9689757873051494 0.0
2.320454545453434 0.974266429123932 0.0
2.518939393937826 1.0031165884585316 0.0
2.717424242422235 1.0291134585729163 0.0
2.915909090906411 1.028456467064387 0.0
3.1143939393908 1.0017471007233907 0.0
3.312878787875129 0.9734382342472327 0.0
3.511363636359531 0.9694471116441179 0.0
3.709848484843827 0.993427672871643 0.0
3.90833333332816 1.0234253102696644 0.0
4.106818181812215 1.0319766816104465 0.0
4.305303030296804 1.0112528624179427 0.0
4.503787878781365 0.9802268581724696 0.0
4.702272727265711 0.9673034982693823 0.0
4.900757575750005 0.984314336342068 0.0
5.099242424235156 1.0156856636557843 0.0
5.297727272720327 1.032696501730447 0.0
5.496212121205663 1.0197731418292357 0.0
5.694696969690998 0.9887471375839454 0.0
5.89318181817668 0.9680233183899578 0.0
6.09166666666213 0.9765746897292161 0.0
6.290151515147423 1.0065723271269442 0.0
6.488636363633031 1.0305528883554378 0.0
6.687121212118713 1.0265617657533623 0.0
6.885606060604342 0.9982528992774091 0.0
7.084090909089381 0.9715435329359575 0.0
7.282575757574369 0.9708865414268261 0.0
7.481060606059355 0.9968834115410053 0.0
7.679545454544343 1.0257335708758406 0.0
7.878030303029329 1.0310242126949407 0.0
8.076515151514705 1.007911665313192 0.0
8.46666666666447 0.9675648740643371 0.0
8.658333333329285 0.9854218120204958 0.0
8.84999999999549 1.0157951865913268 0.0
9.041666666661694 1.032607242563119 0.0
9.233333333327899 1.021423604879896 0.0
9.42499999999549 0.9918462413840761 0.0
9.616666666663775 0.9692694737806624 0.0
9.808333333331985 0.9730771021054117 0.0
10.0 0.7999999999999998 0.0
10.0 0.6000000000013869 0.0
10.0 0.4000000000016644 0.0
10.0 0.2000000000008322 0.0
9.799999999999999 -0.027682855046179768 0.0
9.6 -0.029666430990525038 0.0
9.399999999999999 -0.004109282226057508 0.0
9.2 0.02526270394081996 0.0
8.999999999999998 0.031182149596283012 0.0
8.799999999999997 0.008153758616643718 0.0
8.599999999999998 -0.022444144903105707 0.0
8.399999999999997 -0.032206107075594466 0.0
8.199999999999998 -0.012069645363026614 0.0
7.999999999999997 0.01927162829278723 0.0
7.799999999999997 0.032722155007328044 0.0
7.599999999999998 0.01579518659197791 0.0
7.399999999999997 -0.015795186591978806 0.0
7.199999999999998 -0.0327221550073281 0.0
6.999999999999997 -0.01927162829278641 0.0
6.799999999999997 0.01206964536302756 0.0
6.599999999999998 0.03220610707559468 0.0
6.399999999999997 0.022444144903104965 0.0
6.199999999999998 -0.008153758616644488 0.0
5.999999999999997 -0.031182149596283293 0.0
5.799999999999998 -0.025262703940819517 0.0
5.599999999999998 0.004109282226058064 0.0
5.399999999999999 0.029666430990525183 0.0
5.199999999999998 0.027682855046179473 0.0
4.999999999999999 -2.650864488550479e-16 0.0
4.799999999999999 -0.027682855046179698 0.0
4.599999999999999 -0.02966643099052501 0.0
4.399999999999999 -0.0041092822260574225 0.0
4.199999999999999 0.025262703940819857 0.0
3.999999999999999 0.0311821495962831 0.0
3.799999999999999 0.008153758616644084 0.0
3.599999999999999 -0.022444144903105517 0.0
3.399999999999998 -0.03220610707559455 0.0
3.199999999999998 -0.012069645363026637 0.0
2.999999999999999 0.019271628292786978 0.0
2.799999999999998 0.03272215500732805 0.0
2.599999999999998 0.01579518659197788 0.0
2.399999999999999 -0.01579518659197837 0.0
2.199999999999999 -0.03272215500732807 0.0
1.999999999999998 -0.01927162829278653 0.0
1.799999999999999 0.012069645363027206 0.0
1.6 0.0322061070755946 0.0
1.4 0.022444144903105437 0.0
1.199999999999999 -0.008153758616644424 0.0
0.9999999999999982 -0.031182149596283276 0.0
0.7999999999999989 -0.025262703940819663 0.0
0.6000000000000014 0.004109282226057483 0.0
0.3999999999999986 0.0296664309905252 0.0
0.1999999999999993 0.027682855046179518 0.0
0.0 0.1999999999995579 0.0
0.0 0.3999999999989749 0.0
0.0 0.5999999999989468 0.0
0.0 0.7999999999994734 0.0
0.658726491719378 0.5450257624841042 0.0
9.341273359415606 0.5456613992467335 0.0
8.741843716950667 0.566286548176326 0.0
1.2581543867334808 0.5660019303906311 0.0
8.1635400039578 0.5706852216550029 0.0
1.8364438403913181 0.571319971002721 0.0
2.4296299058782487 0.5950669714356578 0.0
7.5702669309819495 0.5967431388179524 0.0
3.0295781224737484 0.6014862328405678 0.0
6.969838278158017 0.5971082232047809 0.0
3.627724493756856 0.5974183943173929 0.0
6.368651620405052 0.5909560210070425 0.0
4.228611850070439 0.591220314771663 0.0
5.795507791736269 0.525818416214257 0.0
4.801985427166411 0.5255706658506208 0.0
5.2987648174648285 0.5223883680789728 0.0
9.677487323166384 0.6961544014189329 0.0
0.3225126536444094 0.7043820523926919 0.0
4.529950268412759 0.3337548637228635 0.0
3.9180066826329853 0.3729910394157908 0.0
6.068436776087059 0.33368047120222416 0.0
3.3185519107186936 0.37215345531973343 0.0
6.680357550064999 0.3729601548839948 0.0
7.879656084891006 0.3685582150512028 0.0
2.1203056492283108 0.36298904963745543 0.0
2.7193216203491306 0.37652277798809847 0.0
7.280456462109694 0.37038734429161424 0.0
9.037490319304823 0.6750804042390097 0.0
0.9625092131391583 0.6682590095210014 0.0
1.5316068593650487 0.3617737640666323 0.0
8.468387853525028 0.35621560854345163 0.0
8.458794044531041 0.675314239366999 0.0
1.5412011332100208 0.6818849386473378 0.0
0.979174264009972 0.3614280643768421 0.0
9.020825142397666 0.36747112248615155 0.0
4.52662785272728 0.6868945413562227 0.0
3.9206054285847483 0.7028133644090583 0.0
6.070153856560624 0.6865430740251998 0.0
2.1176967156753297 0.6868097418330151 0.0
7.882269194197196 0.69368654658735 0.0
3.3225208870210476 0.7000324896956732 0.0
6.6762431158108635 0.7030284042941586 0.0
2.7246006290164697 0.7057880293324351 0.0
7.275189361410746 0.6982798952201578 0.0
0.3328041237316451 0.30708767101614304 0.0
9.667195847177565 0.299687985972242 0.0
5.581489452428811 0.3216988545104553 0.0
5.016958824807945 0.3210838213875583 0.0
5.5095696366535165 0.6967594096622733 0.0
5.087187264913378 0.6962129699985582 0.0
0.6618084173588088 0.7341842144957256 0.0
9.33819147939979 0.7359421114320791 0.0
8.747939286192555 0.7391669972960164 0.0
1.2520593789673922 0.7389006953852585 0.0
8.6707192901948 0.2737451634848505 0.0
1.3292785575864619 0.2764154378731945 0.0
0.6803150687505064 0.2348842324137098 0.0
9.319684811354172 0.23806968517565644 0.0
8.170446653368762 0.7425115012567957 0.0
1.8295419327730957 0.744492104403272 0.0
8.08277276157654 0.27764867748925 0.0
1.9172099749769642 0.2759225603747547 0.0
7.485805848555766 0.2835851636339728 0.0
2.5140871692163405 0.28455541499720083 0.0
6.885792374670521 0.28414428678207176 0.0
3.1136783050788965 0.2865486959146211 0.0
6.285429641902178 0.2702514451801599 0.0
3.713057777627004 0.2840166322415716 0.0
2.4219667918968724 0.8069292881945134 0.0
7.577973947675125 0.8149313957050788 0.0
3.0210626158417515 0.8192033738797398 0.0
6.978589103667101 0.8072629311378705 0.0
3.617901172780611 0.8063574858186373 0.0
6.37987408157149 0.8156093751489606 0.0
4.216414423785844 0.8167221002763609 0.0
5.793774776057804 0.8338129089827954 0.0
4.802341673698601 0.8327040530825286 0.0
5.29955042549636 0.19717414227775268 0.0
4.313292356603575 0.27073458036474196 0.0
4.742837187545593 0.22916891607544462 0.0
5.856012666524292 0.22986923381815041 0.0
5.298329960617301 0.7243111256629611 0.0
0.19481528685550298 0.5033829372447611 0.0
9.805184698025135 0.5005473248604784 0.0
9.487002723251756 0.15603793347200387 0.0
0.512997235527092 0.16817453483365105 0.0
9.568987158088218 0.5103643870737478 0.0
0.43101278762799106 0.5132694738903563 0.0
9.509176281941409 0.8288566834119888 0.0
0.49082368633672196 0.8433722004321201 0.0
9.823695058319219 0.8195109593714605 0.0
0.1763049357131623 0.8357905127446642 0.0
7.69109568928916 0.20005820335049154 0.0
2.308862198411537 0.18332845972595402 0.0
8.876841404197839 0.19775277255740514 0.0
1.1231578748541187 0.18464390876739487 0.0
7.09132805817231 0.18465863077027928 0.0
2.908451128110789 0.20360074596638003 0.0
6.491467356798767 0.19840625493936984 0.0
3.508014127101286 0.18470132430284303 0.0
1.7129934686226214 0.194853066456579 0.0
8.287000208609285 0.17967385361084526 0.0
4.10766487657068 0.1988249422341113 0.0
8.57783038865238 0.819571302064701 0.0
1.4221677057856104 0.8360043125125791 0.0
8.92350168838438 0.8342372098998255 0.0
1.0764978361256534 0.8171507118649353 0.0
0.8417654105743682 0.8148087079867613 0.0
9.158234417398669 0.8341030806078903 0.0
8.346186965610965 0.8190611268659816 0.0
1.653808519090171 0.838558806169005 0.0
5.592651865123667 0.5043748164503571 0.0
5.004949444798594 0.5040466414938155 0.0
7.789810028528904 0.8499365689289945 0.0
2.210162886656008 0.826874738628658 0.0
7.777652685993454 0.5517094372062136 0.0
2.222290134451922 0.5484027667269472 0.0
2.8148133090220977 0.8556390508298238 0.0
7.185021101641485 0.831340669374804 0.0
3.4115575690915882 0.8321052341648177 0.0
6.587427332257237 0.853370965198945 0.0
4.008745123576529 0.853040253647442 0.0
5.985073622146842 0.8312567894646706 0.0
4.611044493124335 0.8318258323592546 0.0
7.176011854143014 0.5558082433590728 0.0
2.8236545122446692 0.5603775230119715 0.0
6.57597229819191 0.5548189217139752 0.0
3.422110667862638 0.5570767196229556 0.0
5.978528434231456 0.5284996421106197 0.0
4.0215124530379995 0.5549030741318494 0.0
4.6189567901922395 0.5284710542881913 0.0
8.549518853309447 0.5378518989799074 0.0
1.450477051666152 0.5403118717571387 0.0
[...]
POINT_DATA 386
VECTORS vector double
1.0 0.0 0.0
0.0 0.0 0.0
0.0 0.0 0.0
0.0 0.0 0.0
0.0 0.0 0.0
1.0 0.0 0.0
0.0 0.0 0.0
0.0 0.0 0.0
0.0 0.0 0.0
0.0 0.0 0.0
0.0 0.0 0.0
0.0 0.0 0.0
0.0 0.0 0.0
0.0 0.0 0.0
0.0 0.0 0.0
0.0 0.0 0.0
0.0 0.0 0.0
0.0 0.0 0.0
0.0 0.0 0.0
0.0 0.0 0.0
0.0 0.0 0.0
0.0 0.0 0.0
0.0 0.0 0.0
0.0 0.0 0.0
0.0 0.0 0.0
0.0 0.0 0.0
0.0 0.0 0.0
0.0 0.0 0.0
0.0 0.0 0.0
0.0 0.0 0.0
0.0 0.0 0.0
0.0 0.0 0.0
0.0 0.0 0.0
0.0 0.0 0.0
0.0 0.0 0.0
0.0 0.0 0.0
0.0 0.0 0.0
0.0 0.0 0.0
0.0 0.0 0.0
0.0 0.0 0.0
0.0 0.0 0.0
0.0 0.0 0.0
0.0 0.0 0.0
0.0 0.0 0.0
0.0 0.0 0.0
0.0 0.0 0.0
0.0 0.0 0.0
0.0 0.0 0.0
0.0 0.0 0.0
0.0 0.0 0.0
0.0 0.0 0.0
0.0 0.0 0.0
0.0 0.0 0.0
0.0 0.0 0.0
0.950895157117 0.0847136911506 0.0
1.37094379879 -0.00662683686305 0.0
1.36594364942 -0.00963012193084 0.0
1.02242167429 -0.0871450285667 0.0
0.0 0.0 0.0
0.0 0.0 0.0
0.0 0.0 0.0
0.0 0.0 0.0
0.0 0.0 0.0
0.0 0.0 0.0
0.0 0.0 0.0
0.0 0.0 0.0
0.0 0.0 0.0
0.0 0.0 0.0
0.0 0.0 0.0
0.0 0.0 0.0
0.0 0.0 0.0
0.0 0.0 0.0
0.0 0.0 0.0
0.0 0.0 0.0
0.0 0.0 0.0
0.0 0.0 0.0
0.0 0.0 0.0
0.0 0.0 0.0
0.0 0.0 0.0
0.0 0.0 0.0
0.0 0.0 0.0
0.0 0.0 0.0
0.0 0.0 0.0
0.0 0.0 0.0
0.0 0.0 0.0
0.0 0.0 0.0
0.0 0.0 0.0
0.0 0.0 0.0
0.0 0.0 0.0
0.0 0.0 0.0
0.0 0.0 0.0
0.0 0.0 0.0
0.0 0.0 0.0
0.0 0.0 0.0
0.0 0.0 0.0
0.0 0.0 0.0
0.0 0.0 0.0
0.0 0.0 0.0
0.0 0.0 0.0
0.0 0.0 0.0
0.0 0.0 0.0
0.0 0.0 0.0
0.0 0.0 0.0
0.0 0.0 0.0
0.0 0.0 0.0
0.0 0.0 0.0
0.0 0.0 0.0
1.0 0.0 0.0
1.0 0.0 0.0
1.0 0.0 0.0
1.0 0.0 0.0
1.23860046089 -0.0560064186915 0.0
1.39386380222 -0.022461874106 0.0
1.39476857287 -0.00904314266808 0.0
1.34110286737 0.0191009047005 0.0
1.39791006087 -0.0123086378477 0.0
1.38122499558 0.0118235959201 0.0
1.37931547433 0.00335377870763 0.0
1.37583961211 0.00199562848561 0.0
1.37418793884 4.92945036418e-05 0.0
1.37468911492 -0.00562560240557 0.0
1.38128300265 -0.0068354676313 0.0
1.35975950385 -0.000450014974583 0.0
1.37809268642 0.000833453080654 0.0
1.36116016967 -0.0115513809794 0.0
1.39150916492 0.00684518408974 0.0
1.40646530928 0.00346207690261 0.0
1.26294798502 -0.0128540144271 0.0
1.11113559917 -0.131782632793 0.0
1.25585023098 0.00540446051924 0.0
1.30857663752 0.00852776730529 0.0
1.23461278294 -0.006933743165 0.0
1.32124919171 -0.00492687340387 0.0
1.29501317354 0.00551223105613 0.0
1.29923555207 0.00320784416853 0.0
1.32461623787 0.00641138825716 0.0
1.31896697912 0.0130262503379 0.0
1.30579137388 -0.0061539614673 0.0
1.31696639016 -0.00232223467575 0.0
1.23768533986 -0.0194962529758 0.0
1.33285693914 0.0407749736641 0.0
1.2981901317 -0.0199727463019 0.0
1.3223010397 -0.0136868793644 0.0
1.27838325886 0.0252356487097 0.0
1.34671915785 0.0263446945219 0.0
1.32197489196 -0.0104954569669 0.0
1.29627766896 -0.00367719619293 0.0
1.25358777329 0.0138662746512 0.0
1.2860160528 1.4205860696e-07 0.0
1.28248327383 0.00723844819124 0.0
1.28996521487 -0.00687533485256 0.0
1.27085389167 -0.00393098089808 0.0
1.25361396922 0.000759832877675 0.0
1.24331865122 0.0172056640775 0.0
1.2747390291 -0.00223337388966 0.0
1.15477921263 0.0650845744684 0.0
1.26595390522 -0.0267586826596 0.0
1.2099881798 -0.00773610970642 0.0
1.21655995558 0.00485323390268 0.0
1.23045557059 0.0251991007647 0.0
1.24325219291 -0.0111185201302 0.0
1.15687420096 -0.0877421325105 0.0
1.19683914377 -0.0226523710881 0.0
1.20433458518 -0.00129608397499 0.0
1.14703673037 0.0108882197486 0.0
1.14763467404 0.00730335927056 0.0
1.23420868548 0.0361394071545 0.0
1.20380354174 0.0106610821765 0.0
1.1353635224 -0.0233866183748 0.0
1.22050533954 -0.0205519264914 0.0
1.17903534121 -0.00303324009918 0.0
1.16019074956 -0.00202613331206 0.0
1.17669523165 -0.00862725948822 0.0
1.15736295948 0.020236291784 0.0
1.18995535325 0.00461588702801 0.0
1.17038873954 0.0017731759273 0.0
1.17330809186 -0.0165866638663 0.0
1.1425967289 0.0192631897186 0.0
1.17796779691 -0.0022967221009 0.0
1.04109814006 0.0379989116623 0.0
0.982761558445 0.0377603857232 0.0
0.957169389083 -0.0321008709421 0.0
1.09064895519 -0.0473993452194 0.0
1.07833016306 0.0317681836416 0.0
0.977885307716 0.0271419794951 0.0
0.952029707395 -0.0244578115433 0.0
1.05630298937 -0.0398600145324 0.0
1.03578732937 0.0317265710294 0.0
1.03504934567 0.00144654340022 0.0
1.1467582939 -0.00911386260137 0.0
0.916693585565 -0.0347110505711 0.0
0.926385355241 0.014441115764 0.0
1.10974355324 0.0166046374536 0.0
1.00797076726 -0.0206849356681 0.0
1.4101578323 -0.0186173413529 0.0
0.836098894301 -0.0339210621779 0.0
1.13115895529 0.00517979709107 0.0
1.41511409471 -0.0251704370132 0.0
1.13136939377 -0.0493219959205 0.0
0.928554359762 -0.0465505033968 0.0
0.984405431957 -0.127280730969 0.0
0.893770011485 -0.0589053470904 0.0
1.08683699772 -0.141154560051 0.0
1.00920752175 0.019893515398 0.0
0.877813365788 0.0209757178501 0.0
1.01791073897 0.0172245254609 0.0
0.984914619171 0.057786906335 0.0
0.864402523986 -0.0266529176659 0.0
1.02555080309 -0.00363432720534 0.0
1.02353050238 0.0118208370343 0.0
0.865849535383 0.0119132667433 0.0
1.0346799181 -0.000826086382539 0.0
0.8541725483 -0.0365155589915 0.0
1.01864419678 0.00564579074561 0.0
1.02193714808 0.0115610359143 0.0
0.810135916367 0.0372851870732 0.0
0.838884492194 0.0303185060633 0.0
0.981826780879 0.00590872896677 0.0
1.03206615089 -0.0454219111723 0.0
0.83126161987 -0.0260180730978 0.0
1.0513933776 -0.0169413123475 0.0
0.81286265601 -0.0148225688674 0.0
1.35880042398 -0.0233171734739 0.0
1.37946763582 0.025175479962 0.0
0.807286665085 -0.00456225408272 0.0
1.01802154949 0.0127065115321 0.0
1.41463990342 0.0102943278602 0.0
1.42447317035 0.00410602460667 0.0
0.785801562358 0.00793510855448 0.0
1.04930377255 -0.00459252532572 0.0
1.03225200161 -0.0101500497862 0.0
0.818327610061 -0.00929255164534 0.0
0.797051430157 0.0193869785527 0.0
1.08147264554 0.0142592807015 0.0
1.04266919984 -0.0218529599448 0.0
1.41488481925 -0.00561538690698 0.0
1.41234049442 0.00317598325344 0.0
1.39532309478 0.0137978138561 0.0
1.42260558369 -0.00915548715886 0.0
1.37834031672 -0.00681076184216 0.0
1.41307842314 -0.001113680104 0.0
1.41636109076 0.00114561998707 0.0
1.41424338418 -0.0148412062907 0.0
1.38854225014 0.0375438443505 0.0
1.3429924516 0.00641929605638 0.0
1.31170059598 -0.0171903084835 0.0
1.41847237235 -0.00637652919182 0.0
1.41326743645 -0.0173852205153 0.0
1.40709615448 -0.00232200541391 0.0
1.40853784184 0.0273865344404 0.0
1.4276021778 -0.0204684584619 0.0
1.41414604375 0.0108257107108 0.0
1.40991594377 -0.00459902087933 0.0
1.40686431663 0.0138955761827 0.0
1.37079992888 0.00151895471366 0.0
1.40592627515 0.00267284843372 0.0
1.38830482546 -0.00703645194885 0.0
1.40527495836 0.0224835921921 0.0
1.39707737104 -0.00567726404626 0.0
0.932816041646 -0.0502713772011 0.0
0.861620127099 0.0391992059344 0.0
0.979280944241 0.0494718032031 0.0
0.985950109311 -0.0183593771581 0.0
0.884275072179 -0.0512099083692 0.0
0.95027485629 -0.0429512817765 0.0
0.881200795985 -0.0363065173724 0.0
0.824236149912 0.0322250891078 0.0
0.979014640543 0.0396376618178 0.0
0.857427968066 0.0851681451998 0.0
0.879533599647 -0.0989907450762 0.0
1.18965748053 0.226043141928 0.0
0.845135132449 0.00367135967518 0.0
1.03740152277 -0.00677310377534 0.0
0.957967878442 -0.0104130541589 0.0
1.30837330425 -0.0338305454691 0.0
1.19413583139 -0.122501557981 0.0
1.00320789003 0.0310989911857 0.0
0.747952834213 0.0117412671943 0.0
0.919399326829 -0.007505915395 0.0
0.760382317366 -0.0253867539286 0.0
0.753546826807 0.0572923559828 0.0
0.731466235906 -0.0539992595587 0.0
0.770337410283 0.025120848363 0.0
0.938987000826 0.0227388316062 0.0
0.918838416648 -0.0155368088859 0.0
0.770679104022 -0.0334923867829 0.0
1.34325982304 -0.00579228294721 0.0
1.35222581984 0.032726215408 0.0
0.913667718732 0.0286456239034 0.0
1.33537185737 -0.0102943876061 0.0
1.36339776484 0.0215170801714 0.0
0.949209014265 0.0364047385172 0.0
0.894288805313 0.187211929697 0.0
1.36324953881 -0.00148884253298 0.0
1.34954514301 0.0160749183331 0.0
0.958902730846 -0.0827739818859 0.0
0.963786635774 -0.0370732420674 0.0
1.36481384715 -0.00183699705526 0.0
1.34143211306 -0.00214124511757 0.0
1.33316427793 0.0192557510597 0.0
1.35486055741 -0.0109636803502 0.0
0.9458613861 0.0806084161759 0.0
1.35486107977 -0.00525236787476 0.0
1.27114007724 0.0123524031026 0.0
1.28693020364 -0.0251762197904 0.0
1.31485981678 -0.0064654008754 0.0
1.24766795805 0.0130935267497 0.0
1.30412657415 0.0081020277034 0.0
1.2788939782 0.0021192215197 0.0
1.29392789983 -0.0106156961025 0.0
1.27786306131 0.00624206793228 0.0
1.28170220136 0.00871883078414 0.0
1.27473251715 0.00874245693157 0.0
1.2873253043 -0.00317151192885 0.0
1.26506476074 0.00364455566147 0.0
1.29199730539 -0.0109400839751 0.0
1.2982687592 -0.0134739872602 0.0
1.24476817994 0.00296946442239 0.0
1.30715512053 -0.00756298129818 0.0
1.2937961296 -0.000416208051871 0.0
1.30939330287 7.23848442512e-05 0.0
1.26786766153 0.0245304466054 0.0
1.32470947843 -0.0245423508934 0.0
1.23092713348 -0.0615972616298 0.0
1.29470578531 -0.00483077384228 0.0
1.26857350214 0.00622172532744 0.0
1.29887917905 -0.000105581317349 0.0
1.28952503492 -0.0108551276611 0.0
1.27141407844 -0.0106053903079 0.0
1.24467403791 0.026923987851 0.0
1.32893783275 -0.0132388349729 0.0
1.25956755247 0.0142913682949 0.0
1.29403818654 0.00541563914901 0.0
1.27496111931 -0.0101292712759 0.0
1.2795174069 0.0113553767378 0.0
0.901594138203 -0.165259963143 0.0
1.30096227896 -0.0269222320204 0.0
1.3119519513 0.0285091736025 0.0
1.40984570729 0.00645866592993 0.0
1.39911035282 0.00815101705883 0.0
1.28042676286 -0.00622517223575 0.0
1.03281508971 0.0786836709945 0.0
0.6554033621 -0.0191665877366 0.0
1.23475158176 0.109820243528 0.0
1.03367549015 -0.0932715928292 0.0
1.30067496826 -0.0142482190696 0.0
1.32575630182 -0.016235107167 0.0
1.28387194228 0.0106345997648 0.0
1.37153116382 -0.023693336744 0.0
1.37922370895 0.0535924221781 0.0
0.764264760834 0.0742301554133 0.0
0.870070349592 0.0283987900677 0.0
1.01180170888 -0.142520984796 0.0
0.734416951708 -0.0828527707734 0.0
1.37648237192 -0.0138902867858 0.0
1.38643676027 0.0244333983908 0.0
0.691379605219 -0.00965732860927 0.0
0.658079055234 0.0417428471682 0.0
0.708127848106 0.0180853295932 0.0
1.39569400908 0.0221663648988 0.0
1.37747574307 -0.0085377790215 0.0
1.35469707266 -0.0110862950589 0.0
1.32592588055 -0.00162875867339 0.0
1.39283568434 0.0104970021634 0.0
1.37351501441 -0.0113176698905 0.0
1.38815180696 0.0135103878594 0.0
1.35852058985 0.00324045937342 0.0
0.700343082202 -0.0249935912239 0.0
0.661264126121 -0.0455080407399 0.0
1.39043920852 0.00372195156856 0.0
0.689387986644 0.0446022274674 0.0
0.69920788699 0.030676685875 0.0
0.676621865854 -0.0183590621368 0.0
0.671501671273 -0.044697542967 0.0
0.833516355258 -0.0836277976535 0.0
0.682845106789 -0.0591184509787 0.0
0.726133707085 0.0376329067027 0.0
0.703051817387 0.0372662909122 0.0
0.808683384216 0.0859216826653 0.0
0.680605667486 0.0105548520369 0.0
0.787735387416 -0.0463231963115 0.0
0.691926949352 -0.0411826649265 0.0
0.627487110983 0.0859047338076 0.0
1.10849430474 0.0576322837495 0.0
0.750508316127 -0.0527352473313 0.0
0.707041485559 -0.0165538883963 0.0

SCALARS scalar1 double
LOOKUP_TABLE default
4.28126022711
5.02522379367
8.03262688533
5.68154170327
-6.00313232516
-2.49060820574
8.40983300066
7.90051454349
7.04376351483
8.02876808649
7.64258715622
6.8115733235
5.20215450159
4.48466731898
6.85307506082
8.01889239524
7.53065260225
5.99937450405
4.9415873504
5.0669119461
6.30068799826
8.36604487133
8.1322660505
6.53456691266
5.19767248106
4.91253367339
5.76990999317
7.9492346052
9.05948485295
7.69944768298
7.74449768284
3.80083303407
7.71814495916
7.8208132762
9.3560776281
8.49188711634
6.12096180279
5.12091486732
5.34923688029
6.6144279312
8.20359843619
8.59265059293
6.51123967172
5.0978819197
4.96141648376
6.31680903279
7.96584392195
7.16153839027
5.29394896052
4.54112936869
4.9772902003
6.43801181871
8.45638865583
7.96288086056
3.34274257308
0.918254203625
-0.640227133138
-2.86232322673
-5.01181288222
-5.15449464462
-5.81189558328
-7.14668527933
-7.39030692368
-6.14655770256
-5.11668038531
-4.57171545389
-4.93360067997
-6.93061474817
-7.33630651112
-6.49334376192
-5.29049130602
-4.57063994878
-4.62193745983
-6.48268333263
-7.46483302775
-6.97725202455
-5.9078181456
-5.88577533327
-4.06018876443
-6.28597710212
-7.2851078471
-7.18126429867
-6.02996097411
-3.85365887374
-5.64445865053
-5.72247744325
-6.87229898295
-7.38100346274
-6.34851875221
-4.56350153925
-4.53764046513
-5.2731720032
-6.47618555361
-7.35018496317
-6.86287608062
-4.91094833489
-4.59781921341
-5.04927342523
-6.37215783137
-7.91746541545
-8.49586511322
-6.03133671233
-5.49217406446
-5.36290080294
-7.74120245637
-12.1113515878
-13.8078982733
3.13659564031
-0.169008392665
-0.193946245505
-2.33358608797
0.173550086626
0.258899365909
0.337232719251
0.565107619212
0.250336842625
0.4609731524
0.631483335967
0.507963819971
0.569836521813
0.413762430894
0.562557669464
0.400090686465
0.480576544958
-0.0687527837011
-0.0552733420702
-0.0894143583521
1.77981732213
-0.784519762835
-1.55037434897
-1.1500463558
-1.22216554346
-1.20283628159
-1.078668138
-1.24558524567
-1.23464166005
-1.12715042751
-1.11301965103
1.45159333302
1.14290963935
-0.96463847373
-1.2743295622
1.30628879696
1.49636892137
-0.122235756007
-1.11757527121
1.35363720659
1.71448660978
1.01871849975
1.46358337926
1.48503414646
1.49799276287
1.45666298398
1.74585819736
1.48047897251
0.922102488972
-1.63864014995
-1.49862215015
-1.52882529152
1.03552793735
1.28709658156
1.30289090274
2.14088601424
2.26323030183
2.17395090631
-2.09780813439
-1.81631558791
-1.94260960239
-2.54150529768
2.05565716778
2.15408673158
-2.28299464015
-2.27415269192
-1.99766806518
-2.06751816981
-2.12778520434
-2.16347516498
-1.99223248165
-2.06165304497
3.01964740867
3.28178558944
3.29507299509
2.80098779304
2.93542441457
3.19733291237
3.31695697011
3.23486798969
3.35955727413
-2.78442184123
-2.31136994288
-2.79582734224
-2.55517344551
1.57344930531
-0.0573687292563
0.0209285150336
-3.90038607482
-2.91411886823
0.0429226629079
0.0458612041727
3.41745181018
3.13447553846
3.55257417634
-0.274822415361
-2.92164345259
-3.53422874992
-2.9473343555
-3.2892873739
-3.43520079903
-3.01744309896
-2.8683890305
-3.49235037805
-3.20882793209
-3.54992220502
-3.02356260736
3.24145340695
3.71827024
3.82666481988
3.00872453343
2.81023380369
3.69836331679
3.18246057805
3.68799904524
-0.181347175211
-0.206519291055
3.87216731863
3.21462247003
0.170169161969
0.220308337756
3.98236089502
3.24448100916
3.289328608
3.85037707683
3.97332922171
3.14525794317
3.3423017993
0.130501603696
0.309604012444
0.176792490183
0.182577005549
-0.0384150350617
0.240292850966
-0.0191985954739
0.0504782469652
0.396440601993
0.352889602277
0.296926283563
0.119464894096
0.0777354622947
0.12761623135
0.281861889104
-0.0137092568023
0.230551834783
0.108465818396
0.316892575911
0.0718842879261
0.258909556527
0.195876876323
0.380124960793
0.190800775734
3.52564008122
3.8426743762
3.3332440058
3.28562312941
3.71848506106
3.51281058637
3.71067922992
3.89882576547
3.41262704404
-3.1910266617
-3.15413840131
0.159945719764
-4.00015065045
-2.96013827576
-3.54796935008
1.38157790258
-0.210185896797
-3.5290938116
-3.87950813819
-3.46367953537
-4.07970605243
-4.03643503256
-4.16989223454
-3.70151661178
-3.41681790679
-3.46004905554
-3.90191620611
-0.910174972746
-0.146361574902
-3.4460452815
-1.08408364442
-0.802358442112
-3.0442054896
3.91117805168
-0.823410321581
-0.865707700275
3.56553983232
-2.99008965384
-0.821890161307
-0.895745302345
-0.766490459826
-0.83424508204
3.7160885253
-0.878162197264
-1.14249866443
-1.22108434716
1.26156185482
1.5043397561
1.23983860776
1.58938649055
0.904938302685
1.72213285873
1.5410118202
1.64022352381
1.49162258818
1.62271335166
1.49777720933
1.46041877956
1.19853588753
1.57252967641
1.38740645251
1.2182635391
1.31249153063
1.22566778205
0.916514889177
1.24185473955
1.79214461653
1.19301575162
1.66296590943
1.34438069125
0.438655551678
-1.12622059863
1.84276467194
1.53660693433
-0.926095961073
-1.01624369257
3.49534246637
0.868759388811
1.16252887211
0.20507672941
0.189164963236
-1.43412404119
1.23039736011
-4.63571621729
-3.23229193662
-1.39583374602
1.73321302767
-1.04134790075
0.189694199157
-0.691445632174
-0.122425137662
-3.8461999028
3.96893753809
3.66960136838
-4.29559142882
-0.760470261266
-0.582130252256
-4.2561703909
-4.0753466837
-4.13079812097
-0.498761574688
-0.564986075634
-0.984441684227
-0.83007249273
-0.560662383449
-0.589485023845
-0.5328440911
-0.565093442091
-4.18043006936
-4.2126196302
-0.675175452346
-4.09399906184
-4.03701282246
-4.4114387433
-4.22903840522
4.04536081342
4.28481662137
4.48758220854
4.27294311867
-4.2879997265
-4.19537701111
4.39043732464
4.34910493985
4.92861038358
1.43757992958
-4.73251684036
-4.34410739854

SCALARS scalar2 double
LOOKUP_TABLE default
4.28126022711
5.02522379367
8.03262688533
5.68154170327
-6.00313232516
-2.49060820574
8.40983300066
7.90051454349
7.04376351483
8.02876808649
7.64258715622
6.8115733235
5.20215450159
4.48466731898
6.85307506082
8.01889239524
7.53065260225
5.99937450405
4.9415873504
5.0669119461
6.30068799826
8.36604487133
8.1322660505
6.53456691266
5.19767248106
4.91253367339
5.76990999317
7.9492346052
9.05948485295
7.69944768298
7.74449768284
3.80083303407
7.71814495916
7.8208132762
9.3560776281
8.49188711634
6.12096180279
5.12091486732
5.34923688029
6.6144279312
8.20359843619
8.59265059293
6.51123967172
5.0978819197
4.96141648376
6.31680903279
7.96584392195
7.16153839027
5.29394896052
4.54112936869
4.9772902003
6.43801181871
8.45638865583
7.96288086056
3.34274257308
0.918254203625
-0.640227133138
-2.86232322673
-5.01181288222
-5.15449464462
-5.81189558328
-7.14668527933
-7.39030692368
-6.14655770256
-5.11668038531
-4.57171545389
-4.93360067997
-6.93061474817
-7.33630651112
-6.49334376192
-5.29049130602
-4.57063994878
-4.62193745983
-6.48268333263
-7.46483302775
-6.97725202455
-5.9078181456
-5.88577533327
-4.06018876443
-6.28597710212
-7.2851078471
-7.18126429867
-6.02996097411
-3.85365887374
-5.64445865053
-5.72247744325
-6.87229898295
-7.38100346274
-6.34851875221
-4.56350153925
-4.53764046513
-5.2731720032
-6.47618555361
-7.35018496317
-6.86287608062
-4.91094833489
-4.59781921341
-5.04927342523
-6.37215783137
-7.91746541545
-8.49586511322
-6.03133671233
-5.49217406446
-5.36290080294
-7.74120245637
-12.1113515878
-13.8078982733
3.13659564031
-0.169008392665
-0.193946245505
-2.33358608797
0.173550086626
0.258899365909
0.337232719251
0.565107619212
0.250336842625
0.4609731524
0.631483335967
0.507963819971
0.569836521813
0.413762430894
0.562557669464
0.400090686465
0.480576544958
-0.0687527837011
-0.0552733420702
-0.0894143583521
1.77981732213
-0.784519762835
-1.55037434897
-1.1500463558
-1.22216554346
-1.20283628159
-1.078668138
-1.24558524567
-1.23464166005
-1.12715042751
-1.11301965103
1.45159333302
1.14290963935
-0.96463847373
-1.2743295622
1.30628879696
1.49636892137
-0.122235756007
-1.11757527121
1.35363720659
1.71448660978
1.01871849975
1.46358337926
1.48503414646
1.49799276287
1.45666298398
1.74585819736
1.48047897251
0.922102488972
-1.63864014995
-1.49862215015
-1.52882529152
1.03552793735
1.28709658156
1.30289090274
2.14088601424
2.26323030183
2.17395090631
-2.09780813439
-1.81631558791
-1.94260960239
-2.54150529768
2.05565716778
2.15408673158
-2.28299464015
-2.27415269192
-1.99766806518
-2.06751816981
-2.12778520434
-2.16347516498
-1.99223248165
-2.06165304497
3.01964740867
3.28178558944
3.29507299509
2.80098779304
2.93542441457
3.19733291237
3.31695697011
3.23486798969
3.35955727413
-2.78442184123
-2.31136994288
-2.79582734224
-2.55517344551
1.57344930531
-0.0573687292563
0.0209285150336
-3.90038607482
-2.91411886823
0.0429226629079
0.0458612041727
3.41745181018
3.13447553846
3.55257417634
-0.274822415361
-2.92164345259
-3.53422874992
-2.9473343555
-3.2892873739
-3.43520079903
-3.01744309896
-2.8683890305
-3.49235037805
-3.20882793209
-3.54992220502
-3.02356260736
3.24145340695
3.71827024
3.82666481988
3.00872453343
2.81023380369
3.69836331679