# vtk DataFile Version 2.0
2D Simulation Python
ASCII
DATASET UNSTRUCTURED_GRID
FIELD FieldData 1
NODES 1 2 int
386 659

POINTS 386 double
0.0 1.0 0.0
1.725 1.001977566757216 0.0
8.275 0.998022433242784 0.0
10.0 1.0 0.0
10.0 -5.660550231474456e-18 0.0
0.0 0.0 0.0
0.1916666666663293 1.002372192307339 0.0
0.3833333333324708 1.0027076846699177 0.0
0.574999999998553 1.0007184324489395 0.0
0.7666666666645966 0.9981123536222357 0.0
0.9583333333312576 0.9971269567534905 0.0
1.149999999998384 0.998608276855116 0.0
1.341666666665662 1.001284492684025 0.0
1.533333333332819 1.0028578779496065 0.0
1.92348484848444 0.9993028985339 0.0
2.121969696968978 0.997266438442676 0.0
2.320454545453434 0.9977325999930639 0.0
2.518939393937826 1.0002746044350597 0.0
2.717424242422235 1.0025652038921482 0.0
2.915909090906411 1.0025073159854068 0.0
3.1143939393908 1.000153938068347 0.0
3.312878787875129 0.9976596272572468 0.0
3.511363636359531 0.9973079671063269 0.0
3.709848484843827 0.9994209084060588 0.0
3.90833333332816 1.0020640178125189 0.0
4.106818181812215 1.0028174841515194 0.0
4.305303030296804 1.0009914963005864 0.0
4.503787878781365 0.9982577768886872 0.0
4.702272727265711 0.997119092075957 0.0
4.900757575750005 0.9986179269850238 0.0
5.099242424235156 1.0013820730147869 0.0
5.297727272720327 1.002880907924028 0.0
5.496212121205663 1.001742223111463 0.0
5.694696969690998 0.9990085036995802 0.0
5.89318181817668 0.9971825158485164 0.0
6.09166666666213 0.9979359821873827 0.0
6.290151515147423 1.0005790915938169 0.0
6.488636363633031 1.0026920328936342 0.0
6.687121212118713 1.0023403727428057 0.0
6.885606060604342 0.9998460619317234 0.0
7.084090909089381 0.9974926840146234 0.0
7.282575757574369 0.9974347961078289 0.0
7.481060606059355 0.9997253955648995 0.0
7.679545454544343 1.002267400006916 0.0
7.878030303029329 1.002733561557332 0.0
8.076515151514705 1.0006971014661121 0.0
8.46666666666447 0.9971421220503879 0.0
8.658333333329285 0.9987155073159091 0.0
8.84999999999549 1.0013917231448062 0.0
9.041666666661694 1.0028730432464987 0.0
9.233333333327899 1.0018876463778468 0.0
9.42499999999549 0.9992815675511441 0.0
9.616666666663775 0.9972923153301014 0.0
9.808333333331985 0.9976278076926471 0.0
10.0 0.7999999999999998 0.0
10.0 0.6000000000013869 0.0
10.0 0.4000000000016644 0.0
10.0 0.2000000000008322 0.0
9.799999999999999 -0.002439152577231031 0.0
9.6 -0.002613926615844907 0.0
9.399999999999999 -0.0003620712645259135 0.0
9.2 0.002225911645395092 0.0
8.999999999999998 0.002747477470242845 0.0
8.799999999999997 0.0007184324489193509 0.0
8.599999999999998 -0.0019775667572161037 0.0
8.399999999999997 -0.0028376989636715766 0.0
8.199999999999998 -0.0010634635244226303 0.0
7.999999999999997 0.0016980344599347005 0.0
7.799999999999997 0.0028831682492840398 0.0
7.599999999999998 0.001391723144863439 0.0
7.399999999999997 -0.0013917231448635169 0.0
7.199999999999998 -0.002883168249284047 0.0
6.999999999999997 -0.0016980344599346372 0.0
6.799999999999997 0.0010634635244227064 0.0
6.599999999999998 0.0028376989636716057 0.0
6.399999999999997 0.0019775667572160386 0.0
6.199999999999998 -0.0007184324489194171 0.0
5.999999999999997 -0.002747477470242865 0.0
5.799999999999998 -0.002225911645395046 0.0
5.599999999999998 0.00036207126452596233 0.0
5.399999999999999 0.002613926615844927 0.0
5.199999999999998 0.0024391525772310104 0.0
4.999999999999999 -2.335692232015796e-17 0.0
4.799999999999999 -0.002439152577231036 0.0
4.599999999999999 -0.0026139266158449106 0.0
4.399999999999999 -0.00036207126452590557 0.0
4.199999999999999 0.002225911645395079 0.0
3.999999999999999 0.002747477470242855 0.0
3.799999999999999 0.000718432448919382 0.0
3.599999999999999 -0.0019775667572160837 0.0
3.399999999999998 -0.0028376989636715966 0.0
3.199999999999998 -0.0010634635244226266 0.0
2.999999999999999 0.0016980344599346851 0.0
2.799999999999998 0.002883168249284023 0.0
2.599999999999998 0.0013917231448634334 0.0
2.399999999999999 -0.0013917231448634798 0.0
2.199999999999999 -0.0028831682492840237 0.0
1.999999999999998 -0.001698034459934645 0.0
1.799999999999999 0.001063463524422676 0.0
1.6 0.002837698963671597 0.0
1.4 0.001977566757216083 0.0
1.199999999999999 -0.00071843244891941 0.0
0.9999999999999982 -0.002747477470242878 0.0
0.7999999999999989 -0.002225911645395059 0.0
0.6000000000000014 0.0003620712645259108 0.0
0.3999999999999986 0.002613926615844921 0.0
0.1999999999999993 0.0024391525772310034 0.0
0.0 0.1999999999995579 0.0
0.0 0.3999999999989749 0.0
0.0 0.5999999999989468 0.0
0.0 0.7999999999994734 0.0
0.6587156795610126 0.544803940057385 0.0
9.341284260605649 0.5451398975635808 0.0
8.74207236998186 0.5654021686100783 0.0
1.2579265028265179 0.5653149968440526 0.0
8.164000429937527 0.5698297067688778 0.0
1.8359865646187916 0.569912915754321 0.0
2.4290894893547534 0.5945413083332265 0.0
7.5708090070255345 0.5946935857933023 0.0
3.0289497023840446 0.5990701891429845 0.0
6.97042910107138 0.5967788791394862 0.0
3.627045901176354 0.5971752398880152 0.0
6.369164493597177 0.5886540675954421 0.0
4.2280185921043945 0.5886883077874702 0.0
5.795801521411794 0.5256441683171081 0.0
4.801609190591249 0.52539959345431 0.0
5.298725661474085 0.5205249468720408 0.0
9.67747271149645 0.699304445256149 0.0
0.3225272814305645 0.7009463474475627 0.0
4.529513471018226 0.33548216508590245 0.0
3.917405107371631 0.3697731020721945 0.0
6.068803773713248 0.3355308414256192 0.0
3.317947402581956 0.3729109860327685 0.0
6.6808820067597425 0.3697148117276565 0.0
7.88010691113882 0.365296455718372 0.0
2.1198580678921912 0.3640908643441709 0.0
2.7187899940425115 0.3731080607534461 0.0
7.28097898988305 0.3713416208800636 0.0
9.037576781544741 0.6720798957469629 0.0
0.9624229942819785 0.6702290758481262 0.0
1.531310600806555 0.3587274837994112 0.0
8.468685582092691 0.35761636961125637 0.0
8.459108243754336 0.6769535315806032 0.0
1.540888433018348 0.6785411998932277 0.0
0.9790815824513797 0.3632073845580517 0.0
9.020918108486635 0.3646547514548131 0.0
4.526192734837957 0.687700706628819 0.0
3.920016261510325 0.6995858642881223 0.0
6.070518738535117 0.6877312388028796 0.0
2.117246639158639 0.6883143031939919 0.0
7.882722905247439 0.6900157038826641 0.0
3.321929509505215 0.701069188254396 0.0
6.67675764547203 0.6995948718890533 0.0
2.7240818477718216 0.7020061977602883 0.0
7.275701036322495 0.6996526841143205 0.0
0.33281637226938715 0.3038933773997226 0.0
9.667183617983495 0.302589580221266 0.0
5.581620974808572 0.3207281637101815 0.0
5.016759712948374 0.32049093950540924 0.0
5.5096596973531415 0.6939150397442881 0.0
5.087031935057278 0.6937267264607869 0.0
0.661802803200058 0.7346341587115958 0.0
9.338197157354399 0.7349093900756032 0.0
8.74811407848164 0.7384913450984523 0.0
1.2518851513646385 0.7383687972816733 0.0
8.670911143026501 0.27427099762118345 0.0
1.3290874526917311 0.2746643223109462 0.0
0.6803068184382701 0.23603233351841152 0.0
9.319693130347153 0.23638901082875083 0.0
8.170801777588611 0.7425297382369271 0.0
1.8291892207857496 0.7427335018579616 0.0
8.083125023415091 0.27613019837972813 0.0
1.9168602280724998 0.27572205198637406 0.0
7.486238267584975 0.2828448123129683 0.0
2.513653849598498 0.28324602339078525 0.0
6.886255162535903 0.28327132269169764 0.0
3.113175527746146 0.2852564062840908 0.0
6.285809937955363 0.2689314808562623 0.0
3.7125265202940914 0.28348282712244793 0.0
2.421645622395745 0.8098349298175482 0.0
7.578296359386782 0.8104938063853984 0.0
3.020689931274761 0.8134437226680256 0.0
6.978940341030044 0.8113942649727006 0.0
3.6174978308724297 0.8115429885132878 0.0
6.380180182512794 0.8089300306603535 0.0
4.216060549078695 0.8090211474229734 0.0
5.793913540557175 0.8414539125466217 0.0
4.8021636011207525 0.841267828506336 0.0
5.299530048291401 0.186501866523437 0.0
4.312850142512994 0.26896570423390065 0.0
4.742556891185696 0.23557761691065754 0.0
5.856238019417156 0.23575138001514442 0.0
5.298300259250916 0.7176827623528895 0.0
0.19482722007554076 0.5024941612343146 0.0
9.805172775380376 0.5012342361591898 0.0
9.486998271180967 0.16136841502947177 0.0
0.5130017131510276 0.16256235483847437 0.0
9.568974073031955 0.5109817951030821 0.0
0.43102590816312014 0.5121831092422062 0.0
9.5091690660027 0.83517661938869 0.0
0.4908309233672103 0.8367694127617782 0.0
9.823686876586267 0.8266713638195314 0.0
0.1763131218306785 0.8285234080991695 0.0
7.691381937160428 0.19178834893591024 0.0
2.308577270033323 0.19023469510013663 0.0
8.87693060598612 0.19149859916259498 0.0
1.1230689705685213 0.19016780286804286 0.0
7.091649322485055 0.19213435844419433 0.0
2.9081155853623555 0.19462094591068188 0.0
6.491763792087494 0.18906956657898336 0.0
3.5076439198026454 0.1925802611028209 0.0
1.7127827707593477 0.1874045832638767 0.0
8.287212209694836 0.1860358577067181 0.0
4.107323537392114 0.1891169944639775 0.0
8.577993845674154 0.8264340284905785 0.0
1.4220049174932234 0.8281823890841767 0.0
8.923581921478075 0.8263112745391197 0.0
1.0764178317634137 0.824358625391841 0.0
0.841736172433561 0.8231142776969752 0.0
9.158263751052463 0.8252600408981648 0.0
8.346403841484294 0.827221354361395 0.0
1.653592860449107 0.8292835006324335 0.0
5.5928130969126135 0.5035703093776622 0.0
5.004709247551534 0.5033183097911054 0.0
7.79008374629397 0.8389850140318373 0.0
2.2098912617038735 0.836522055807141 0.0
7.778185881728328 0.5495381164233922 0.0
2.221760728972127 0.5480324109926418 0.0
2.81449975278463 0.8443188892780679 0.0
7.185327160733084 0.8412270035445225 0.0
3.411204546157098 0.84182325628439 0.0
6.587723890354279 0.8422641197148335 0.0
4.008405138342186 0.8422333959554059 0.0
5.985262335399891 0.8410805166413009 0.0
4.610815669573688 0.8410699936456225 0.0
7.17661361129661 0.555381096920347 0.0
2.823036145619871 0.5579850233418715 0.0
6.576552284254982 0.5525955576591772 0.0
3.421416402653393 0.5565375652779274 0.0
5.978917194747036 0.5283870147187499 0.0
4.020846891830194 0.5526080669329655 0.0
4.618485430640265 0.5282651812574899 0.0
8.54983697483173 0.5375181331614425 0.0
[...]
POINT_DATA 386
VECTORS vector double
1.0 0.0 0.0
0.0 0.0 0.0
0.0 0.0 0.0
0.0 0.0 0.0
0.0 0.0 0.0
1.0 0.0 0.0
0.0 0.0 0.0
0.0 0.0 0.0
0.0 0.0 0.0
0.0 0.0 0.0
0.0 0.0 0.0
0.0 0.0 0.0
0.0 0.0 0.0
0.0 0.0 0.0
0.0 0.0 0.0
0.0 0.0 0.0
0.0 0.0 0.0
0.0 0.0 0.0
0.0 0.0 0.0
0.0 0.0 0.0
0.0 0.0 0.0
0.0 0.0 0.0
0.0 0.0 0.0
0.0 0.0 0.0
0.0 0.0 0.0
0.0 0.0 0.0
0.0 0.0 0.0
0.0 0.0 0.0
0.0 0.0 0.0
0.0 0.0 0.0
0.0 0.0 0.0
0.0 0.0 0.0
0.0 0.0 0.0
0.0 0.0 0.0
0.0 0.0 0.0
0.0 0.0 0.0
0.0 0.0 0.0
0.0 0.0 0.0
0.0 0.0 0.0
0.0 0.0 0.0
0.0 0.0 0.0
0.0 0.0 0.0
0.0 0.0 0.0
0.0 0.0 0.0
0.0 0.0 0.0
0.0 0.0 0.0
0.0 0.0 0.0
0.0 0.0 0.0
0.0 0.0 0.0
0.0 0.0 0.0
0.0 0.0 0.0
0.0 0.0 0.0
0.0 0.0 0.0
0.0 0.0 0.0
0.953865130298 0.0841745626521 0.0
1.34784819204 -0.00475428279407 0.0
1.34607113885 -0.00927600674681 0.0
1.03393583523 -0.0866095211736 0.0
0.0 0.0 0.0
0.0 0.0 0.0
0.0 0.0 0.0
0.0 0.0 0.0
0.0 0.0 0.0
0.0 0.0 0.0
0.0 0.0 0.0
0.0 0.0 0.0
0.0 0.0 0.0
0.0 0.0 0.0
0.0 0.0 0.0
0.0 0.0 0.0
0.0 0.0 0.0
0.0 0.0 0.0
0.0 0.0 0.0
0.0 0.0 0.0
0.0 0.0 0.0
0.0 0.0 0.0
0.0 0.0 0.0
0.0 0.0 0.0
0.0 0.0 0.0
0.0 0.0 0.0
0.0 0.0 0.0
0.0 0.0 0.0
0.0 0.0 0.0
0.0 0.0 0.0
0.0 0.0 0.0
0.0 0.0 0.0
0.0 0.0 0.0
0.0 0.0 0.0
0.0 0.0 0.0
0.0 0.0 0.0
0.0 0.0 0.0
0.0 0.0 0.0
0.0 0.0 0.0
0.0 0.0 0.0
0.0 0.0 0.0
0.0 0.0 0.0
0.0 0.0 0.0
0.0 0.0 0.0
0.0 0.0 0.0
0.0 0.0 0.0
0.0 0.0 0.0
0.0 0.0 0.0
0.0 0.0 0.0
0.0 0.0 0.0
0.0 0.0 0.0
0.0 0.0 0.0
0.0 0.0 0.0
1.0 0.0 0.0
1.0 0.0 0.0
1.0 0.0 0.0
1.0 0.0 0.0
1.23404066609 -0.0280000615601 0.0
1.36026701386 -0.0272690308505 0.0
1.36714181394 -0.00783446767577 0.0
1.32850325638 0.0259660171009 0.0
1.36149007093 -0.0200023234327 0.0
1.35532353301 0.00715586822706 0.0
1.35616540462 0.00651035497078 0.0
1.35558389747 0.0105271750887 0.0
1.34120397253 -0.00164127378709 0.0
1.33767443181 -0.0160680810329 0.0
1.35820861769 -0.00803277581386 0.0
1.33340088658 0.0139108048789 0.0
1.34422613893 0.001626405224 0.0
1.32338612007 -0.0177719578989 0.0
1.3534206747 0.00182472699033 0.0
1.35634166591 0.00273597471705 0.0
1.24659331301 -0.0234798788685 0.0
1.0891341254 -0.10973201471 0.0
1.24230313212 -0.0032156780564 0.0
1.29403283318 0.0163573446499 0.0
1.22687307907 -0.00688447950106 0.0
1.29426975969 -0.0129426303797 0.0
1.28286820978 0.0104962645741 0.0
1.28387378778 0.00752673015609 0.0
1.29983060507 -0.00391124448976 0.0
1.30368245284 0.0223954520573 0.0
1.27828691422 -0.00975536496128 0.0
1.29530168735 0.00459894772768 0.0
1.2434083041 -0.0146962784268 0.0
1.31761478614 0.0459965876697 0.0
1.2787533448 -0.0281392954776 0.0
1.31503814041 -0.0249445895363 0.0
1.27161745639 0.033705541069 0.0
1.32219399706 0.0231001433401 0.0
1.30977848898 -0.00565023766767 0.0
1.27731950617 -0.0125541040411 0.0
1.25234090742 0.0265209713161 0.0
1.26818436319 -0.00116128308868 0.0
1.27206495064 7.16646770334e-05 0.0
1.27916000775 0.00625792358515 0.0
1.25472713801 -0.016590406915 0.0
1.24504464091 0.0139242973699 0.0
1.24333789308 0.0308396495747 0.0
1.2630168875 -0.0116198854179 0.0
1.17224210275 0.101079743517 0.0
1.26620280738 -0.0305805951777 0.0
1.20360886258 -0.0100565589874 0.0
1.19847285902 0.00126822899251 0.0
1.22486012489 0.0172236440711 0.0
1.23975558798 -0.00062431292663 0.0
1.13767098098 -0.065177057082 0.0
1.19009061256 -0.0242561619985 0.0
1.200403426 -0.00185796373019 0.0
1.15632993122 0.0163332948221 0.0
1.15380039038 0.00302915217976 0.0
1.20690622767 0.0383759774708 0.0
1.22075550487 0.0184914588894 0.0
1.1410314564 -0.0168111087879 0.0
1.21384633545 -0.0267009303915 0.0
1.18488734178 -0.00129707196145 0.0
1.15036123836 -0.00302199542912 0.0
1.17940592224 -0.0143593044994 0.0
1.15492077102 0.0221298016335 0.0
1.17549034232 0.00693417900357 0.0
1.16081582081 -0.00185576809209 0.0
1.17312505068 -0.017360035955 0.0
1.14865150827 0.0287823842818 0.0
1.16714022647 -0.00281663173542 0.0
1.01894390754 0.0055098230757 0.0
1.04212574187 0.0171820955141 0.0
1.05099066526 -0.00542484114597 0.0
1.07357627477 -0.0249039603945 0.0
1.02818745792 -0.00171883896335 0.0
1.05884394287 0.0142431880367 0.0
1.06194407959 -0.000897957388027 0.0
0.990624974255 -0.0159123285767 0.0
0.964862154819 0.00126734745292 0.0
0.960632178039 0.00391836691075 0.0
1.15042164192 -0.00727731694092 0.0
0.987208459059 -0.0365114683564 0.0
1.00394651816 0.00488982442301 0.0
1.1744779457 0.0119941410271 0.0
1.01187739258 -0.0150446475495 0.0
1.38259114021 -0.0228210418165 0.0
0.913794698383 -0.0187045113457 0.0
1.0926374745 0.0621555513145 0.0
1.38435012411 -0.0298436688843 0.0
1.13755275414 -0.0206139044432 0.0
0.884697215104 -0.028953657907 0.0
1.01562711763 -0.0726235775565 0.0
0.832767079848 -0.065125128804 0.0
1.09919521392 -0.165816820039 0.0
0.949212416287 0.0123640636315 0.0
0.962095528892 0.00524793028355 0.0
0.979259033694 0.000389252183916 0.0
1.05403737106 0.0315694697198 0.0
0.947808751113 -0.0246601002769 0.0
0.9545093085 0.0137870664045 0.0
0.954957583529 0.0128325105847 0.0
0.955167582489 -0.00128092388506 0.0
0.966000315896 0.0196145607643 0.0
0.93039715587 -0.0320306406045 0.0
0.942646610897 0.0185270756338 0.0
0.950337832178 -0.0187715149614 0.0
0.910110750112 0.0324156645706 0.0
0.935117140105 0.0222103499702 0.0
0.908547530313 -0.0158470177966 0.0
0.939043189964 -0.0261651533007 0.0
0.941678545534 -0.0110009881681 0.0
0.974337779982 -0.0126839303689 0.0
0.935883717974 0.0024901682358 0.0
1.32395446287 -0.0255446883519 0.0
1.34221923659 0.022108039147 0.0
0.948319856634 0.00704672216129 0.0
0.922573905356 0.00283018852224 0.0
1.38323031502 0.0167723955079 0.0
1.38799047353 -0.00391660195703 0.0
0.935379407372 0.0201514398397 0.0
0.95574920088 -0.0230419601653 0.0
0.939091731302 -0.0131059339637 0.0
0.964364069896 0.00959062980764 0.0
0.93903302209 0.0244706724299 0.0
0.978585976513 -0.00391036033644 0.0
0.96985630456 -0.0176283861928 0.0
1.37517180395 -0.012978947846 0.0
1.3785883142 0.0137616395412 0.0
1.36149562131 0.0226761242234 0.0
1.38287196115 -0.0195320980119 0.0
1.33707731476 -0.00709837264714 0.0
1.37908279729 0.0105146615964 0.0
1.37598181972 -0.00717852282324 0.0
1.37854999815 -0.0195337299303 0.0
1.36701241474 0.0431114243481 0.0
1.32864957188 0.0131472112936 0.0
1.30404383106 -0.00588155467868 0.0
1.38478919874 -0.000987322021203 0.0
1.37806787851 -0.0149745994263 0.0
1.37079679615 -0.00600428822295 0.0
1.38031345845 0.0289103778549 0.0
1.38821642708 -0.0309367319701 0.0
1.38096675204 0.00240192640997 0.0
1.37482205044 -0.00332316108062 0.0
1.37568862563 0.0199409191213 0.0
1.33523145698 0.00788365667857 0.0
1.37070702853 -0.00518418989021 0.0
1.35149403522 -0.0040181675634 0.0
1.3752503495 0.0298375388984 0.0
1.36532624916 -0.00572442042442 0.0
0.968282932711 -0.0248398779094 0.0
0.916464506921 0.0175368104537 0.0
0.962922426487 0.0176953702796 0.0
0.954263365315 0.00662669021403 0.0
0.99159546844 -0.0221817554594 0.0
0.952298833204 -0.0211236582498 0.0
0.982012331926 -0.000786849999773 0.0
0.910781032383 0.019809118008 0.0
0.936807521925 0.00448265427411 0.0
0.934627471831 0.0481526661546 0.0
0.945838865577 -0.0668074874607 0.0
1.18621939229 0.164909144839 0.0
0.943213900127 -0.0291625199828 0.0
0.960656214025 0.011877454323 0.0
1.05664713053 -0.00973154062433 0.0
1.28629942436 -0.0474413718154 0.0
1.17267474847 -0.0875046882246 0.0
0.903605554566 0.0226946217625 0.0
0.8625082668 -0.00495547168886 0.0
0.837947922005 0.0160903091241 0.0
0.857122314577 -0.0225755001687 0.0
0.848271906027 0.0251140935112 0.0
0.792008952515 -0.0292335514313 0.0
0.86932613728 0.00766488953587 0.0
0.87134217664 0.00861800667294 0.0
0.852518247921 0.0112910684322 0.0
0.851864761346 -0.0244279851801 0.0
1.31769411686 0.00233916509977 0.0
1.32612705829 0.0363176523669 0.0
0.867496642971 0.00856992666872 0.0
1.3128714867 -0.0232258596577 0.0
1.34246090856 0.0158211099419 0.0
0.926264473595 0.00798932188401 0.0
1.02237768246 0.148002335416 0.0
1.33547527436 -0.00418642354722 0.0
1.32121100613 0.0255193233825 0.0
0.998334827771 -0.0295392347021 0.0
0.925169542734 -0.00716427205216 0.0
1.33712055773 0.00165587990593 0.0
1.31419845717 -0.0112038776258 0.0
1.30680068398 0.0325476039015 0.0
1.32894760846 -0.0170203631828 0.0
0.96923133646 0.0372565348221 0.0
1.3261161141 0.00193104414616 0.0
1.25460712067 0.000850932692026 0.0
1.2607679809 -0.0230610294261 0.0
1.30156779998 -0.00965708935444 0.0
1.25440736527 0.0265747181263 0.0
1.29135658705 -0.000665487812462 0.0
1.2661285978 0.0139363109975 0.0
1.26922376579 -0.0183016006645 0.0
1.27948115777 0.0184517367287 0.0
1.27157832232 -0.00147126799333 0.0
1.2691302946 0.0233429844158 0.0
1.27912859268 -0.0186635414286 0.0
1.2556459871 0.014274913717 0.0
1.26945359122 -0.022575397702 0.0
1.29065577154 -0.00405790287167 0.0
1.24609727429 0.011780098432 0.0
1.27687924309 -0.00582828384374 0.0
1.28074253938 -0.0102433032239 0.0
1.29310322977 -0.00315225066965 0.0
1.26688972544 0.0265222706044 0.0
1.30319094647 -0.0395944680053 0.0
1.21717301102 -0.0480318053313 0.0
1.2790972223 -0.00556044716027 0.0
1.27491167796 0.0124815776667 0.0
1.27737447268 0.001819516018 0.0
1.26187515636 -0.01266482809 0.0
1.25885133391 -0.0102881888111 0.0
1.26978631625 0.0531339992679 0.0
1.31544067901 -0.0214662063784 0.0
1.26576820357 0.0230139403045 0.0
1.28270078739 -0.000218265006346 0.0
1.26034355394 -0.0106851826361 0.0
1.25814008306 0.0126987417728 0.0
1.03590075615 -0.127303549126 0.0
1.27680791851 -0.0293931202239 0.0
1.30353290801 0.0246894222051 0.0
1.36224205564 0.00524547037118 0.0
1.35193182735 0.00437305577779 0.0
1.2780453482 -0.00715779834188 0.0
1.04458114463 0.0833571828624 0.0
0.796568147813 -0.0240121550845 0.0
1.12916651254 0.144704651543 0.0
0.99375117921 -0.106156674117 0.0
1.2851993845 -0.0181475011029 0.0
1.30771206186 -0.0164635020312 0.0
1.28803219248 0.0187366085031 0.0
1.34249430542 -0.0223286305909 0.0
1.34884093543 0.0602188319072 0.0
0.898383775176 0.0684763850974 0.0
0.751300875611 0.0116978153903 0.0
1.09158996609 -0.135159538417 0.0
0.854250673778 -0.0843313833333 0.0
1.34377371335 -0.0198975269175 0.0
1.35997708902 0.0119000162638 0.0
0.655383755188 0.0235433203569 0.0
0.723996680706 0.0181140444977 0.0
0.713846363049 -0.00627403923114 0.0
1.3615578231 0.029077111631 0.0
1.34362825428 -0.00249761957449 0.0
1.32573402026 -0.0182785292894 0.0
1.30476252118 -0.00858754118647 0.0
1.35721825597 0.00397858927567 0.0
1.339000177 -0.0162360963463 0.0
1.35611292333 0.0178624574358 0.0
1.32123550179 0.0138192584769 0.0
0.692664182524 0.00250780357826 0.0
0.695553720041 -0.0273998864836 0.0
1.3527628003 0.00198006064647 0.0
0.72859564967 0.0221902019577 0.0
0.727704829084 0.00606461898389 0.0
0.69561703903 0.00146977352915 0.0
0.675898705336 -0.023780122308 0.0
0.806465360141 -0.0349340249153 0.0
0.745295552325 -0.0361942346964 0.0
0.748051794663 0.00792181463408 0.0
0.71958270848 0.0121788892265 0.0
0.803239418737 0.0556318532897 0.0
0.749643045967 -0.0156430874992 0.0
0.810406539977 -0.017603895497 0.0
0.77210122657 -0.0120360205203 0.0
0.577468299649 0.0330180421749 0.0
1.12445167212 -0.0732919153666 0.0
0.797372479695 -0.0188508800393 0.0
0.685401114225 0.0172926603338 0.0

SCALARS scalar1 double
LOOKUP_TABLE default
2.51939762437
6.60577709173
6.94202199652
5.78610697725
-6.65200197953
-2.67240661167
10.0957137536
9.35407813554
7.24777807664
6.65706607377
5.96941674112
6.04769582661
6.14108030625
6.07256618969
6.87922756204
6.43367404153
6.26183060215
6.35931688884
6.7547076938
6.73476477742
6.76764176424
6.95952957672
6.51220531383
6.39671190363
6.71851846577
6.65146483502
6.64039137907
7.09602286281
7.1663938855
6.93257332737
8.73027212705
5.3309864654
8.97452713514
7.26592218074
7.36479710373
7.09244559511
6.5335102936
6.7472592236
7.22877931507
6.97585502335
6.80912507881
6.87455223002
6.49073324314
6.51435575541
6.77947948789
7.231771884
6.28341411046
6.41285336682
6.27991892384
6.07415879469
6.34204013095
6.32300202595
6.50539483991
5.96364447641
3.45778838309
0.769333577919
-0.500866393416
-2.4784307202
-7.12719209653
-6.98240141966
-6.28252939525
-5.85951012491
-6.14680965883
-6.13108467359
-6.70544166515
-6.05151951259
-5.62210084641
-5.99661578185
-5.87810695668
-5.93338162608
-6.35967773293
-5.99352630507
-5.62472729991
-6.06705184391
-6.03853286731
-6.00688325972
-6.56798480598
-7.90917358953
-5.2871265156
-6.23852416092
-6.08848144777
-6.11801966295
-6.20608642008
-5.07591882229
-7.28584410614
-5.82586754489
-5.56813795921
-6.08108895534
-6.32308878815
-5.83038653341
-5.86309666406
-5.94474012918
-5.5920107772
-5.95320725591
-6.32332980834
-5.91900839007
-6.0158306981
-6.13540160209
-5.83729308246
-6.27639717695
-7.09742635637
-6.5735007158
-6.84692828068
-6.69329281192
-7.56055404819
-10.0094871183
-11.4144243368
2.76834006629
-0.130793289195
-0.0873097823347
-2.96521704948
0.218184266752
0.186689527579
0.238383361057
0.402556177952
0.130342554076
0.311851107224
0.484956934331
0.323271471966
0.354583430408
0.266420685004
0.430189662149
0.234998733067
0.276938376405
-0.0129945333727
-0.0540788518655
-0.125322378435
1.7020726408
-0.43308962236
-1.27699619026
-0.937583903486
-0.804432818796
-0.967372150669
-0.917756121923
-1.09655546511
-0.989533635837
-0.93842716017
-0.833244208519
1.13047511476
1.09057705467
-0.881491809992
-0.961642429247
1.158367745
1.17018515476
-0.0633546398673
-0.952974773488
1.07374950704
1.38579500521
0.868002143496
1.28452353903
1.06423434284
1.25889459833
0.999713962312
1.37531352252
1.36301723852
1.0174769009
-1.26366633729
-1.27433308003
-1.24638936692
0.631274697621
0.834258280566
1.20238725328
1.76479779126
2.16059327337
2.1176597106
-1.72510584716
-1.62348218194
-2.17939113413
-2.55202657415
1.65544450784
1.76057783308
-2.20107202031
-2.16573423956
-1.69592368769
-1.77625656196
-1.98329015935
-2.06934119195
-1.68207805908
-1.74091232099
3.22769878926
3.10551960446
2.54660336823
2.53041137218
3.27856647255
2.81930958425
2.51025588531
3.32121889129
3.86086360897
-3.06699970225
-2.26001572365
-2.27820996577
-2.0511212664
0.899660747013
0.0836281950116
0.0214597915004
-3.7039872301
-3.76267575387
0.0584168731943
0.184919376054
3.55357989537
2.5148722197
4.07779847706
-0.45732500332
-3.10377560278
-2.96293547127
-2.95826937941
-2.68291608378
-2.96448447703
-3.38365105791
-3.18744419542
-2.94748350669
-3.62022377352
-3.20059622848
-3.37623774084
3.69454684817
3.37163735532
3.42016584528
3.54008902188
3.20472876327
3.05027617675
3.4700327172
3.06163423262
-0.131248753418
-0.181694879127
3.29555538681
3.63330545799
0.0475716982901
0.170925275731
3.2753355171
3.61206001056
3.6817601716
3.20476865401
3.35013575596
3.63637357667
3.63609435572
0.0822207742187
0.163966492393
0.0686348712764
0.124633470307
0.0137848726213
0.106459001271
-0.0193294501572
0.0300696137845
0.241327757852
0.258910413394
0.257582644132
0.0480670183755
0.017371449861
0.0790453295679
0.148432662354
-0.0278133041442
0.171457888717
0.00503773005173
0.201208592138
0.0556932867307
0.174053690601
0.0855508022299
0.249661892059
0.112939719437
3.25798006162
3.69678010672
3.61964941518
3.34506236478
2.94633849273
3.40682899659
2.97870343978
3.6061871766
3.84403756517
-2.89123918225
-3.02854033768
0.0939355357855
-3.44315797267
-3.35327404299
-3.11138924064
1.16336069904
0.000650511169715
-3.90108287529
-3.36206318727
-3.89434090174
-3.70862281801
-3.53104177447
-4.11038516478
-3.2131615738
-3.6358839804
-3.8696755233
-3.66772614997
-0.732643838394
-0.141519561609
-3.53590987327
-0.860315539702
-0.669738191441
-3.0045891815
3.52533245208
-0.626231337588
-0.731108427634
3.23245028418
-3.28820450155
-0.643827829631
-0.680447390333
-0.606589902453
-0.630844483257
3.83226060716
-0.677656715199
-0.841645919138
-0.92267558502
1.08390160463
1.28796423052
1.00664441416
1.12946164548
0.783868996555
1.37767184852
1.38717494799
1.23811327909
1.33525219761
1.15333849838
1.36591549441
1.2430283549
1.07137271765
1.16341854637
1.13523563398
0.837892641495
0.983954477737
1.00673555532
0.855522951731
0.932011418044
1.69234555294
0.926527088791
1.28742975641
0.945258037553
0.511278729576
-0.826877433564
1.67261844382
1.3365940673
-0.661977558198
-0.798080889637
3.38306210137
0.615476984069
0.855739954728
0.0612570847324
0.0530082847079
-1.11583871744
1.46310370382
-4.28292281784
-4.00343738644
-0.999103892184
1.62186147598
-0.815515484096
0.213990408888
-0.528025560364
-0.153391222406
-3.61768374318
4.48082519846
3.2387698488
-3.94276111222
-0.632704306676
-0.445148526073
-4.43181910684
-3.95449718087
-4.07502638985
-0.390163481655
-0.454669072374
-0.754652551233
-0.533048022504
-0.410846164672
-0.467383671846
-0.41152177107
-0.381738780758
-4.28220457965
-4.28213822741
-0.489906664294
-4.02781718425
-3.91029338777
-4.43286989081
-4.41706056508
3.9395424814
4.12369720559
4.55200116176
4.40730385286
-4.24575918778
-3.95115572631
4.29923703837
4.17726589412
4.87989898629
0.710814550778
-4.84470209292
-4.52705983186

SCALARS scalar2 double
LOOKUP_TABLE default
2.51939762437
6.60577709173
6.94202199652
5.78610697725
-6.65200197953
-2.67240661167
10.0957137536
9.35407813554
7.24777807664
6.65706607377
5.96941674112
6.04769582661
6.14108030625
6.07256618969
6.87922756204
6.43367404153
6.26183060215
6.35931688884
6.7547076938
6.73476477742
6.76764176424
6.95952957672
6.51220531383
6.39671190363
6.71851846577
6.65146483502
6.64039137907
7.09602286281
7.1663938855
6.93257332737
8.73027212705
5.3309864654
8.97452713514
7.26592218074
7.36479710373
7.09244559511
6.5335102936
6.7472592236
7.22877931507
6.97585502335
6.80912507881
6.87455223002
6.49073324314
6.51435575541
6.77947948789
7.231771884
6.28341411046
6.41285336682
6.27991892384
6.07415879469
6.34204013095
6.32300202595
6.50539483991
5.96364447641
3.45778838309
0.769333577919
-0.500866393416
-2.4784307202
-7.12719209653
-6.98240141966
-6.28252939525
-5.85951012491
-6.14680965883
-6.13108467359
-6.70544166515
-6.05151951259
-5.62210084641
-5.99661578185
-5.87810695668
-5.93338162608
-6.35967773293
-5.99352630507
-5.62472729991
-6.06705184391
-6.03853286731
-6.00688325972
-6.56798480598
-7.90917358953
-5.2871265156
-6.23852416092
-6.08848144777
-6.11801966295
-6.20608642008
-5.07591882229
-7.28584410614
-5.82586754489
-5.56813795921
-6.08108895534
-6.32308878815
-5.83038653341
-5.86309666406
-5.94474012918
-5.5920107772
-5.95320725591
-6.32332980834
-5.91900839007
-6.0158306981
-6.13540160209
-5.83729308246
-6.27639717695
-7.09742635637
-6.5735007158
-6.84692828068
-6.69329281192
-7.56055404819
-10.0094871183
-11.4144243368
2.76834006629
-0.130793289195
-0.0873097823347
-2.96521704948
0.218184266752
0.186689527579
0.238383361057
0.402556177952
0.130342554076
0.311851107224
0.484956934331
0.323271471966
0.354583430408
0.266420685004
0.430189662149
0.234998733067
0.276938376405
-0.0129945333727
-0.0540788518655
-0.125322378435
1.7020726408
-0.43308962236
-1.27699619026
-0.937583903486
-0.804432818796
-0.967372150669
-0.917756121923
-1.09655546511
-0.989533635837
-0.93842716017
-0.833244208519
1.13047511476
1.09057705467
-0.881491809992
-0.961642429247
1.158367745
1.17018515476
-0.0633546398673
-0.952974773488
1.07374950704
1.38579500521
0.868002143496
1.28452353903
1.06423434284
1.25889459833
0.999713962312
1.37531352252
1.36301723852
1.0174769009
-1.26366633729
-1.27433308003
-1.24638936692
0.631274697621
0.834258280566
1.20238725328
1.76479779126
2.16059327337
2.1176597106
-1.72510584716
-1.62348218194
-2.17939113413
-2.55202657415
1.65544450784
1.76057783308
-2.20107202031
-2.16573423956
-1.69592368769
-1.77625656196
-1.98329015935
-2.06934119195
-1.68207805908
-1.74091232099
3.22769878926
3.10551960446
2.54660336823
2.53041137218
3.27856647255
2.81930958425
2.51025588531
3.32121889129
3.86086360897
-3.06699970225
-2.26001572365
-2.27820996577
-2.0511212664
0.899660747013
0.0836281950116
0.0214597915004
-3.7039872301
-3.76267575387
0.0584168731943
0.184919376054
3.55357989537
2.5148722197
4.07779847706
-0.45732500332
-3.10377560278
-2.96293547127
-2.95826937941
-2.68291608378
-2.96448447703
-3.38365105791
-3.18744419542
-2.94748350669
-3.62022377352
-3.20059622848
-3.37623774084
3.69454684817
3.37163735532