# vtk DataFile Version 2.0
2D Simulation Python
ASCII
DATASET UNSTRUCTURED_GRID
FIELD FieldData 1
NODES 1 2 int
386 659

POINTS 386 double
0.0 1.0557658519380444 0.0
1.725 0.9794712207002275 0.0
8.275 0.9794712207002275 0.0
10.0 1.0557658519380444 0.0
10.0 0.05576585193804433 0.0
0.0 0.05576585193804433 0.0
0.1916666666663293 1.0494198975863949 0.0
0.3833333333324708 1.031826328314622 0.0
0.574999999998553 1.0069893145460647 0.0
0.7666666666645966 0.9805615828195826 0.0
0.9583333333312576 0.9585578956940985 0.0
1.149999999998384 0.9459861348468742 0.0
1.341666666665662 0.9457075430523394 0.0
1.533333333332819 0.9577855258086456 0.0
1.92348484848444 1.006778583001573 0.0
2.121969696968978 1.032433799041154 0.0
2.320454545453434 1.0501839145857366 0.0
2.518939393937826 1.0557026881426386 0.0
2.717424242422235 1.0476450272198943 0.0
2.915909090906411 1.0279748281612182 0.0
3.1143939393908 1.0014863150449083 0.0
3.312878787875129 0.9746355418744477 0.0
3.511363636359531 0.9539668564152821 0.0
3.709848484843827 0.9445178441641635 0.0
3.90833333332816 0.9485915159810959 0.0
4.106818181812215 0.9651949944958875 0.0
4.305303030296804 0.9902815084358778 0.0
4.503787878781365 1.0177367135173707 0.0
4.702272727265711 1.0408689435866387 0.0
4.900757575750005 1.0540401726098656 0.0
5.099242424235156 1.0540401726103787 0.0
5.297727272720327 1.04086894358797 0.0
5.496212121205663 1.017736713519094 0.0
5.694696969690998 0.9902815084375615 0.0
5.89318181817668 0.9651949944971038 0.0
6.09166666666213 0.9485915159816232 0.0
6.290151515147423 0.9445178441640399 0.0
6.488636363633031 0.9539668564146938 0.0
6.687121212118713 0.9746355418736788 0.0
6.885606060604342 1.0014863150442275 0.0
7.084090909089381 1.0279748281607084 0.0
7.282575757574369 1.047645027219647 0.0
7.481060606059355 1.0557026881426197 0.0
7.679545454544343 1.0501839145858722 0.0
7.878030303029329 1.032433799041347 0.0
8.076515151514705 1.006778583001692 0.0
8.46666666666447 0.9577855258088939 0.0
8.658333333329285 0.9457075430525013 0.0
8.84999999999549 0.9459861348466605 0.0
9.041666666661694 0.9585578956934375 0.0
9.233333333327899 0.9805615828185968 0.0
9.42499999999549 1.0069893145452362 0.0
9.616666666663775 1.03182632831419 0.0
9.808333333331985 1.049419897586285 0.0
10.0 0.7999999999999998 0.0
10.0 0.6000000000013869 0.0
10.0 0.4000000000016644 0.0
10.0 0.2000000000008322 0.0
9.799999999999999 0.04886798857164512 0.0
9.6 0.029880837713235457 0.0
9.399999999999999 0.003501566815184401 0.0
9.2 -0.023743944931703426 0.0
8.999999999999998 -0.045115521923675204 0.0
8.799999999999997 -0.05532612153906029 0.0
8.599999999999998 -0.05184977784751925 0.0
8.399999999999997 -0.03554649183408247 0.0
8.199999999999998 -0.01044947864514323 0.0
7.999999999999997 0.017232595954653207 0.0
7.799999999999997 0.040651556544262155 0.0
7.599999999999998 0.05401386515318226 0.0
7.399999999999997 0.05401386515318203 0.0
7.199999999999998 0.04065155654426169 0.0
6.999999999999997 0.017232595954652378 0.0
6.799999999999997 -0.010449478645144087 0.0
6.599999999999998 -0.03554649183408315 0.0
6.399999999999997 -0.05184977784751956 0.0
6.199999999999998 -0.05532612153906022 0.0
5.999999999999997 -0.04511552192367475 0.0
5.799999999999998 -0.023743944931702912 0.0
5.599999999999998 0.0035015668151848773 0.0
5.399999999999999 0.02988083771323568 0.0
5.199999999999998 0.04886798857164539 0.0
4.999999999999999 0.05576585193804433 0.0
4.799999999999999 0.04886798857164518 0.0
4.599999999999999 0.029880837713235384 0.0
4.399999999999999 0.0035015668151843287 0.0
4.199999999999999 -0.02374394493170331 0.0
3.999999999999999 -0.04511552192367507 0.0
3.799999999999999 -0.05532612153906026 0.0
3.599999999999999 -0.051849777847519346 0.0
3.399999999999998 -0.035546491834082726 0.0
3.199999999999998 -0.010449478645143258 0.0
2.999999999999999 0.01723259595465295 0.0
2.799999999999998 0.040651556544261995 0.0
2.599999999999998 0.05401386515318226 0.0
2.399999999999999 0.054013865153182114 0.0
2.199999999999999 0.0406515565442617 0.0
1.999999999999998 0.0172325959546525 0.0
1.799999999999999 -0.010449478645143768 0.0
1.6 -0.035546491834082886 0.0
1.4 -0.05184977784751939 0.0
1.199999999999999 -0.05532612153906022 0.0
0.9999999999999982 -0.0451155219236748 0.0
0.7999999999999989 -0.023743944931703093 0.0
0.6000000000000014 0.0035015668151843803 0.0
0.3999999999999986 0.029880837713235707 0.0
0.1999999999999993 0.048867988571645316 0.0
0.0 0.1999999999995579 0.0
0.0 0.3999999999989749 0.0
0.0 0.5999999999989468 0.0
0.0 0.7999999999994734 0.0
0.6589140611638213 0.5381905378775397 0.0
9.341085935280221 0.5381905380019907 0.0
8.742733167836546 0.528491990307151 0.0
1.2572666220814674 0.5284920124618914 0.0
8.165433587563518 0.563904433236815 0.0
1.8345608115872831 0.563906581916409 0.0
2.427448416646966 0.627823933065448 0.0
7.5724735864439445 0.6277565580303837 0.0
3.026999413999508 0.6032013578257099 0.0
6.97234310860218 0.6021872183422678 0.0
3.6248569780025957 0.5572717037424958 0.0
6.370904489957183 0.5491039668412493 0.0
4.226037510444404 0.5720451164631235 0.0
5.796796469107145 0.5100093902337327 0.0
4.800353142513507 0.5596433505962121 0.0
5.298598520321118 0.5486909944543035 0.0
9.677286012252928 0.7161966805651965 0.0
0.32271398758625636 0.7161966805508319 0.0
4.5280491599721895 0.3520131321366809 0.0
3.915427412920007 0.33172956915719554 0.0
6.070053361580527 0.29898582449035394 0.0
3.3160351325889583 0.3511057137817944 0.0
6.682626290017927 0.3476290850035852 0.0
7.881496647737401 0.38393572333208004 0.0
2.1184813802191473 0.38395074013054037 0.0
2.717160013214929 0.40056635133302854 0.0
7.282621128133245 0.4002677573573906 0.0
9.037696661131413 0.6406182551419661 0.0
0.9623033172863606 0.6406182551760966 0.0
1.5303842358513466 0.32839848472837485 0.0
8.46961450946596 0.32839813626736203 0.0
8.460093368849167 0.6469538662350277 0.0
1.539905716591955 0.6469540409411989 0.0
0.9789343477314258 0.3334532947345531 0.0
9.021065611119967 0.33345329253509975 0.0
4.524732177474212 0.702483410633002 0.0
3.918078183607769 0.6574266667935776 0.0
6.071763136605755 0.6491026020744501 0.0
2.115872197199009 0.7097054135745919 0.0
7.884110394424574 0.7096959009861882 0.0
3.320064209088722 0.6780712198297231 0.0
6.678472406417258 0.6757375392998262 0.0
2.722499382997558 0.7324718620404385 0.0
7.277302388480455 0.7322565932239863 0.0
0.3329918966594779 0.3189858927657538 0.0
9.66700810299743 0.31898589278866435 0.0
5.582063080480188 0.3250650692635487 0.0
5.0161002070507035 0.3637753139180014 0.0
5.509963494657406 0.7059200541825594 0.0
5.086517386580612 0.7354016808180699 0.0
0.6619737310046345 0.7282865262525051 0.0
9.338026267143354 0.7282865263572629 0.0
8.748618821835898 0.6951314213022509 0.0
1.2513810510188876 0.6951314304349406 0.0
8.67148419096118 0.23315350576925958 0.0
1.3285154545826967 0.2331535734524085 0.0
0.6804474479457481 0.2277294176346127 0.0
9.319552548050055 0.22772941765800825 0.0
8.171905121493866 0.7358320713606673 0.0
1.8280912809652874 0.7358332459851729 0.0
8.08422167221633 0.27842716165264164 0.0
1.9157706643894254 0.278431221516907 0.0
7.487579019504712 0.32114622657965985 0.0
2.5123299091865974 0.32124775292036434 0.0
6.887768809006477 0.2809512147052446 0.0
3.1116022319335492 0.2823579979996803 0.0
6.28710227773457 0.22470584587860928 0.0
3.7108004240503605 0.2391672866009043 0.0
2.4206731362087077 0.8522942494029359 0.0
7.579283276062351 0.8522601097863481 0.0
3.019535994677819 0.8221043226187241 0.0
6.980076339221588 0.8215889106884889 0.0
3.6161987046938684 0.766717240530233 0.0
6.381218850125912 0.7634489477347254 0.0
4.214878958533346 0.7885406526258821 0.0
5.794384152258961 0.8222718508262387 0.0
4.801568538197239 0.8842729173344062 0.0
5.299464011747652 0.21958505585702123 0.0
4.311370608016357 0.2622056068924951 0.0
4.741620148877669 0.2733684059470019 0.0
5.857002248423232 0.2124551446313868 0.0
5.298203895127595 0.748566988836401 0.0
0.19496911273424186 0.5116266576589998 0.0
9.805030887161745 0.5116266576691244 0.0
9.48687268099636 0.17152221194302342 0.0
0.5131273181477028 0.1715222119113106 0.0
9.568732414208602 0.5192600393392727 0.0
0.4312675850871905 0.5192600392942696 0.0
9.50902789780623 0.8478180158340108 0.0
0.4909721018743813 0.8478180158089627 0.0
9.823600514627985 0.8533269369601411 0.0
0.1763994853507852 0.8533269369577232 0.0
7.6922651003224916 0.2285727507095559 0.0
2.3077045776130483 0.22860016950002846 0.0
8.877153462010469 0.14834730485694173 0.0
1.1228464575685453 0.14834731444565288 0.0
7.092679306544025 0.21322818632667795 0.0
2.9070762401920116 0.21367740345713354 0.0
6.492761854693974 0.14933960195367577 0.0
3.5064568819577904 0.15433328713181577 0.0
1.7121212291241983 0.16836439943922155 0.0
8.287876629999639 0.16836353622739858 0.0
4.106190264296999 0.15974317602168014 0.0
8.578497237517599 0.7850199174501519 0.0
1.4215024750899243 0.7850199583811428 0.0
8.923767517201311 0.7834217791038258 0.0
1.0762324532164556 0.7834217797812443 0.0
0.8417593218521522 0.7997893168556613 0.0
9.158240672321796 0.799789316986932 0.0
8.347082330277214 0.8031233931303932 0.0
1.6529166112485794 0.8031236405857298 0.0
5.59335651547567 0.5066042433795273 0.0
5.00391208650557 0.5423233116032645 0.0
7.790918023121109 0.8707143282716241 0.0
2.2090663024849513 0.8707238369506136 0.0
7.779818485884676 0.5732802782278325 0.0
2.220146488996084 0.5733045082052338 0.0
2.8135403339580596 0.8740798031034317 0.0
7.186293483346232 0.8738923670154729 0.0
3.4100850022990126 0.8097498998437295 0.0
6.588718870519373 0.8080948326104233 0.0
4.0072809683704556 0.8011815251296409 0.0
5.985905337162069 0.8038357732942992 0.0
4.610048050681374 0.8682077347428804 0.0
7.1785200263999025 0.57731671327982 0.0
2.821137151393841 0.5777716425832637 0.0
6.578498046721542 0.5229632922562195 0.0
3.419208796258811 0.5275680139582288 0.0
5.980240285328175 0.498574266016933 0.0
4.018645189052402 0.5197760943815122 0.0
4.6169055926674725 0.550457069525219 0.0
8.550823977376455 0.5059153469336409 0.0
[...]
POINT_DATA 386
VECTORS vector double
1.0 0.0 0.0
0.0 0.0 0.0
0.0 0.0 0.0
0.0 0.0 0.0
0.0 0.0 0.0
1.0 0.0 0.0
0.0 0.0 0.0
0.0 0.0 0.0
0.0 0.0 0.0
0.0 0.0 0.0
0.0 0.0 0.0
0.0 0.0 0.0
0.0 0.0 0.0
0.0 0.0 0.0
0.0 0.0 0.0
0.0 0.0 0.0
0.0 0.0 0.0
0.0 0.0 0.0
0.0 0.0 0.0
0.0 0.0 0.0
0.0 0.0 0.0
0.0 0.0 0.0
0.0 0.0 0.0
0.0 0.0 0.0
0.0 0.0 0.0
0.0 0.0 0.0
0.0 0.0 0.0
0.0 0.0 0.0
0.0 0.0 0.0
0.0 0.0 0.0
0.0 0.0 0.0
0.0 0.0 0.0
0.0 0.0 0.0
0.0 0.0 0.0
0.0 0.0 0.0
0.0 0.0 0.0
0.0 0.0 0.0
0.0 0.0 0.0
0.0 0.0 0.0
0.0 0.0 0.0
0.0 0.0 0.0
0.0 0.0 0.0
0.0 0.0 0.0
0.0 0.0 0.0
0.0 0.0 0.0
0.0 0.0 0.0
0.0 0.0 0.0
0.0 0.0 0.0
0.0 0.0 0.0
0.0 0.0 0.0
0.0 0.0 0.0
0.0 0.0 0.0
0.0 0.0 0.0
0.0 0.0 0.0
1.00711393726 0.1020614383 0.0
1.30675352866 0.0100143866735 0.0
1.3143265794 0.00281140902337 0.0
0.985340425575 -0.0662929516855 0.0
0.0 0.0 0.0
0.0 0.0 0.0
0.0 0.0 0.0
0.0 0.0 0.0
0.0 0.0 0.0
0.0 0.0 0.0
0.0 0.0 0.0
0.0 0.0 0.0
0.0 0.0 0.0
0.0 0.0 0.0
0.0 0.0 0.0
0.0 0.0 0.0
0.0 0.0 0.0
0.0 0.0 0.0
0.0 0.0 0.0
0.0 0.0 0.0
0.0 0.0 0.0
0.0 0.0 0.0
0.0 0.0 0.0
0.0 0.0 0.0
0.0 0.0 0.0
0.0 0.0 0.0
0.0 0.0 0.0
0.0 0.0 0.0
0.0 0.0 0.0
0.0 0.0 0.0
0.0 0.0 0.0
0.0 0.0 0.0
0.0 0.0 0.0
0.0 0.0 0.0
0.0 0.0 0.0
0.0 0.0 0.0
0.0 0.0 0.0
0.0 0.0 0.0
0.0 0.0 0.0
0.0 0.0 0.0
0.0 0.0 0.0
0.0 0.0 0.0
0.0 0.0 0.0
0.0 0.0 0.0
0.0 0.0 0.0
0.0 0.0 0.0
0.0 0.0 0.0
0.0 0.0 0.0
0.0 0.0 0.0
0.0 0.0 0.0
0.0 0.0 0.0
0.0 0.0 0.0
0.0 0.0 0.0
1.0 0.0 0.0
1.0 0.0 0.0
1.0 0.0 0.0
1.0 0.0 0.0
1.23138056673 -0.224436132759 0.0
1.31508270652 0.105292031732 0.0
1.34346529618 0.00097963137856 0.0
1.32347037339 0.00028603780696 0.0
1.29277542422 -0.120836907505 0.0
1.30218051052 0.125608339679 0.0
1.26615087229 0.0226262095515 0.0
1.25730199587 -0.0495358781575 0.0
1.28396318704 -0.121682280706 0.0
1.27800906038 0.11250536106 0.0
1.33022451416 -0.0408113786229 0.0
1.32927732853 0.0583151491786 0.0
1.29880224685 0.10765875399 0.0
1.26176829514 -0.0843552683383 0.0
1.28095673903 0.039233053823 0.0
1.29661757289 -0.116964882785 0.0
1.21827036739 0.0914475080739 0.0
1.1702930037 -0.285580951528 0.0
1.23741662529 0.128049126138 0.0
1.21437439056 0.0591402907927 0.0
1.17875479242 -0.0117974287938 0.0
1.25117589441 -0.108485187898 0.0
1.22058930692 0.114954981927 0.0
1.30247092109 -0.12924180655 0.0
1.29960801549 0.118983889053 0.0
1.33832753424 -0.0708142117615 0.0
1.28562220169 0.05153109443 0.0
1.35940885325 0.106248424956 0.0
1.32401316145 -0.127774799653 0.0
1.22897057215 0.100322914246 0.0
1.22724333461 -0.07376858966 0.0
1.3268298558 -0.0933235214713 0.0
1.34008160166 0.12193237528 0.0
1.22401322552 -0.0856554731932 0.0
1.23493814176 0.0691308575578 0.0
1.21648206724 0.116867535741 0.0
1.31143613118 0.0810924171616 0.0
1.28626588549 -0.0298582151494 0.0
1.22075858466 0.12221213691 0.0
1.19935395842 -0.118047436742 0.0
1.25862662902 -0.110567598737 0.0
1.28474780221 0.152839072092 0.0
1.16599091313 -0.0607062397109 0.0
1.17631356998 0.0462573957498 0.0
1.06571313191 -0.0673745833944 0.0
1.2822616263 0.098615090233 0.0
1.22581453839 -0.141109918438 0.0
1.29669247118 -0.0275340726002 0.0
1.1446444751 -0.0927298103116 0.0
1.12873946907 -0.0784589347935 0.0
1.23929905718 -0.253297359156 0.0
1.23281150943 0.123519483963 0.0
1.3036590448 -0.0143011677756 0.0
1.28465363572 -0.0101244037831 0.0
1.0897340223 -0.00119067422705 0.0
1.10214065174 0.0269376035745 0.0
1.0932358477 -0.14369452274 0.0
1.10771092368 0.121551741451 0.0
1.18742753928 -0.143081542051 0.0
1.21701010841 0.141212515996 0.0
1.18964251157 -0.124960503818 0.0
1.17561931616 0.128553344552 0.0
1.25776644495 0.00135789027248 0.0
1.28066023548 0.00470099972412 0.0
1.13540455407 0.134647899126 0.0
1.19553676211 -0.149132606283 0.0
1.09500270644 0.0538041569739 0.0
1.101502519 -0.0211765893966 0.0
1.03344333051 0.0276562053836 0.0
1.04783629054 -0.0427544633397 0.0
1.06152285226 -0.135234679774 0.0
1.12421525082 0.138959352311 0.0
1.11682532264 -0.0560290108672 0.0
1.13976724387 0.048683131291 0.0
1.12514191182 0.134200410497 0.0
0.97565161461 -0.109045625727 0.0
0.970179363857 0.0473598688937 0.0
1.07351031497 -0.126366592576 0.0
1.1399866505 0.114648372074 0.0
1.07836772111 0.0620479444287 0.0
1.0556257422 -0.0563444045588 0.0
1.08753284366 -0.100696549374 0.0
0.954720118932 -0.11769926971 0.0
1.32768186861 0.042386892452 0.0
0.932357394994 0.124088115598 0.0
0.947010840213 -0.106331048101 0.0
1.32961471953 0.0947436781546 0.0
1.10525377498 -0.203189466881 0.0
0.942191041686 0.108550715254 0.0
1.21016397996 -0.268263738641 0.0
0.88269701732 0.00831312855983 0.0
1.33593529449 -0.292118152326 0.0
1.03821321731 -0.0874882163402 0.0
1.03026364955 0.0856862280974 0.0
0.947458234427 0.0343645531438 0.0
0.993565559508 -0.0330825191434 0.0
0.992524123996 0.0975907340276 0.0
1.01087998666 -0.113553800295 0.0
0.929471633207 0.0704220233523 0.0
0.962401231704 -0.0715099094822 0.0
0.983370872595 0.125397865627 0.0
0.987927683502 -0.116671049405 0.0
0.955568472678 0.0978789338635 0.0
1.02565634907 -0.0832771101241 0.0
0.99821699409 0.0844742839662 0.0
1.02271869833 0.0830414482856 0.0
1.0159413058 -0.095065598889 0.0
1.05284297317 -0.153790446897 0.0
1.0208202455 0.10717452341 0.0
1.01108564728 -0.104728990657 0.0
1.00458569032 0.113378809002 0.0
1.27314791664 -0.134928018115 0.0
1.29469394707 -0.0169457100363 0.0
0.956760037891 -0.101122495185 0.0
0.95365626135 0.101958559322 0.0
1.29694186414 -0.0927943634547 0.0
1.30486667279 0.07913923893 0.0
0.960458001503 -0.0857039783327 0.0
1.01557297474 0.0808468263812 0.0
1.0099580607 -0.092551711915 0.0
1.04073337192 0.109886292216 0.0
1.04260979081 0.109234246457 0.0
1.01543117615 -0.0669078306123 0.0
0.999048794488 0.0990189026954 0.0
1.2872076158 0.0775102486544 0.0
1.30817388641 -0.101176521601 0.0
1.32689433794 0.117201823329 0.0
1.31838905861 -0.0912700463725 0.0
1.27622345917 -0.0383079816447 0.0
1.3109413649 0.0892838316609 0.0
1.28841721405 0.0891264533105 0.0
1.32264943217 -0.0474236745362 0.0
1.32320245372 0.0716707561189 0.0
1.30762356837 -0.0708185607835 0.0
1.28364403499 -0.155015322666 0.0
1.34428320269 0.0572886879643 0.0
1.32822945154 0.0955737111429 0.0
1.29118962825 0.117570504692 0.0
1.32089442128 0.122419374733 0.0
1.32099586757 -0.100482662103 0.0
1.30942628437 0.123242053917 0.0
1.29592042785 -0.124310773053 0.0
1.31848501009 0.0348717051307 0.0
1.28389235676 0.0148272867273 0.0
1.31347166085 -0.111829366362 0.0
1.30323827824 0.135022186903 0.0
1.30685535032 -0.0222398684073 0.0
1.28242197158 0.00165556757997 0.0
1.01356219699 0.120953981097 0.0
1.02324132506 0.0200013656317 0.0
1.04045128282 -0.000763956208954 0.0
0.982755697517 0.145975028754 0.0
0.986406861685 -0.142195081283 0.0
0.994118863192 -0.133855019819 0.0
1.058379999 0.161259265102 0.0
0.949600649809 -0.0359425194742 0.0
0.991374291226 0.0254424528161 0.0
1.02403164981 0.0829196926453 0.0
1.07591617728 -0.19100796833 0.0
0.900053000631 0.0721977387757 0.0
0.893713362217 0.0351365873643 0.0
0.946049827854 0.0988321261963 0.0
0.985635372849 -0.119238833074 0.0
1.27980471814 0.0986017097092 0.0
1.25879633287 -0.310088661865 0.0
0.90022258562 0.0680390581471 0.0
0.883769622336 -0.0519733310617 0.0
0.938854614135 -0.107696279477 0.0
0.923439196899 0.103639688876 0.0
0.865804934773 0.00987996884702 0.0
0.881711916222 0.102180099756 0.0
0.92510836298 0.0723501032484 0.0
0.914293324931 -0.0708408478692 0.0
0.861755807081 0.10935064393 0.0
0.892241162625 -0.123898282536 0.0
1.24873378477 0.0306904603652 0.0
1.24124745899 -0.0205669588782 0.0
0.872000964837 0.0330764662278 0.0
1.26938177726 -0.101850189607 0.0
1.26806991934 0.118554303579 0.0
1.01592044251 -0.0510804894572 0.0
0.967199947171 0.04288440654 0.0
1.3347532663 0.0551893014565 0.0
1.32595199522 -0.0668643382641 0.0
0.944942920477 -0.136926960225 0.0
1.05323299118 -0.158292165314 0.0
1.32233942665 -0.126488653808 0.0
1.27186012612 0.103121212678 0.0
1.2447692626 0.0933989266795 0.0
1.25685827687 -0.0675596447737 0.0
0.945941954992 0.00921566379261 0.0
1.24602956299 0.0911453658704 0.0
1.22971884563 -0.0959796221452 0.0
1.30901201683 0.0165763064983 0.0
1.33664767683 -0.0445184300872 0.0
1.33740036371 0.0524468116444 0.0
1.19961913817 0.0710667447143 0.0
1.3051142677 0.100484920498 0.0
1.25306743815 -0.0772873960259 0.0
1.17505736162 -0.0825476158275 0.0
1.18559049707 0.0692082857631 0.0
1.32599755493 0.120484320619 0.0
1.30535152523 -0.0976397244261 0.0
1.19590288031 -0.108521147222 0.0
1.21084319231 0.0987981352421 0.0
1.35836449174 0.0404904906895 0.0
1.32553428145 -0.0564012775985 0.0
1.25428164195 0.141591739041 0.0
1.2562061609 0.125048799772 0.0
1.23292815288 -0.122519352816 0.0
1.29623252406 0.136929157603 0.0
1.28283417502 -0.124300511756 0.0
1.29697973697 -0.211862973275 0.0
1.31211764965 0.117468331565 0.0
1.33270124036 0.0198572707209 0.0
1.3204570574 -0.00342434390947 0.0
1.23946024178 -0.127716152162 0.0
1.26207553014 0.140995314666 0.0
1.1568803015 -0.151601188099 0.0
1.26607900104 0.124628408673 0.0
1.17099494079 -0.0138376670377 0.0
1.17433829094 -0.0117665352351 0.0
1.29579146165 -0.147489553253 0.0
1.32690668247 -0.0935630619372 0.0
0.967630130343 -0.22507985023 0.0
1.22271047859 -0.120785836562 0.0
1.19316859193 0.0179540237148 0.0
1.30403765885 -0.0859379100972 0.0
1.29565905597 -0.119712634464 0.0
1.30796300104 0.0176274092485 0.0
0.877561541735 0.0272684550562 0.0
0.786207693817 0.0956446015814 0.0
0.91039168853 -0.000269659117735 0.0
1.08320150834 -0.183188972343 0.0
1.26229169419 0.00969156141151 0.0
1.23682347367 0.0994525427031 0.0
1.1908575216 -0.14329854367 0.0
1.28274708552 -0.029155195893 0.0
1.27903757711 0.0558021144521 0.0
0.975962496963 0.00936031329174 0.0
0.848766448417 0.119622947148 0.0
1.37391706837 -0.319987814747 0.0
0.948320506412 0.0186680069965 0.0
1.28282227546 -0.133595985122 0.0
1.28826774547 0.138244629191 0.0
0.741711000145 0.128892130001 0.0
0.747134006336 -0.00485981793965 0.0
0.712389105374 0.00203398101856 0.0
1.32687292211 0.00614758934275 0.0
1.30157500612 -0.0192641566331 0.0
1.30690316919 0.0771757303085 0.0
1.25533857275 -0.0559490149512 0.0
1.30697725217 -0.117073617103 0.0
1.27412715529 0.114202937231 0.0
1.27686585662 0.0127168472388 0.0
1.26872441345 0.0400758150245 0.0
0.73940951922 -0.09801440181 0.0
0.734481350772 0.0882380018228 0.0
1.26918931652 0.12459778872 0.0
0.742838098345 0.0372113614847 0.0
0.760882633027 -0.0206186762601 0.0
0.779992454575 0.127900959439 0.0
0.79350955548 -0.126798193343 0.0
0.941849792812 -0.18622533143 0.0
0.801775946421 0.0896070924319 0.0
0.811192277364 -0.0101667350295 0.0
0.790384494159 -0.012404249879 0.0
0.799229068745 0.042505577825 0.0
0.757348166426 -0.0267373433181 0.0
0.829040905566 -0.117376478948 0.0
0.811795510317 0.112014405198 0.0
0.802166306088 0.0979504671721 0.0
1.52881514773 -0.160981214478 0.0
0.750106854942 -0.136184982891 0.0
0.722765873784 0.126557858938 0.0

SCALARS scalar1 double
LOOKUP_TABLE default
4.07615851074
7.64770706137
7.6957063873
5.6895549515
-8.50507732474
-2.48553365218
12.2284541146
11.5494514477
8.55350719973
8.25762816786
7.39175017485
7.43342238125
7.50846385528
7.26944190082
7.16343388837
6.63549733439
6.05132063422
6.14678891942
6.62533955487
6.69462400298
6.94518743429
7.88932125427
7.75820330127
7.79811141482
8.42502625764
7.73975195578
7.46575695467
7.51354421842
7.13201652147
6.6245305812
7.72369738964
4.68715878327
8.53154233373
7.25115175682
7.97561463769
8.33743464159
7.82074237176
7.96942554196
8.45311190031
7.57076040007
7.26780368391
7.09089488583
6.34303999944
6.0971493323
6.63012190508
7.20195354227
7.37691602393
7.70942173667
7.65138269223
7.32235563088
7.47222913124
6.66840696457
7.15432332543
6.73779158432
1.55052231308
0.188156322123
-0.22501496811
-4.89931847335
-7.92358963083
-7.59157682523
-7.20664662299
-5.88905617071
-5.63239638535
-5.5493964961
-6.43000034813
-6.237537919
-6.51310273027
-7.79600853642
-7.52002146024
-7.09831479858
-7.5576134989
-7.02370434316
-6.61744003274
-6.40794875451
-5.81321985084
-5.47111742278
-6.20665810014
-7.90471349258
-5.96617192424
-7.74388350638
-7.62245609375
-7.43380330039
-7.39325450887
-6.29306001438
-8.56430059927
-7.11142411541
-5.90711632135
-5.8955821649
-6.06700065752
-5.74706096745
-5.95499321346
-6.6027840822
-6.6968980493
-7.01067384107
-7.29290987426
-6.81029824423
-7.32678634907
-7.48083307246
-6.32954120399
-6.25249273942
-6.73351496961
-5.94837253497
-6.04087953565
-6.31150056539
-7.46093161137
-8.74559934659
-9.81131645962
1.95727008087
-0.735343747978
-0.677727447091
-5.11862700684
-0.335595872798
-0.0566058915319
0.0140625086552
0.087121935059
0.0999660335186
0.00863269141281
0.226921438479
0.177005240528
0.226564658635
-0.105428221231
0.0156781889774
-0.0391224570081
-0.088136821602
0.138436678769
-0.0601768214559
0.187227148309
0.841684837704
-1.68367663967
-0.519730074014
-0.549492459225
-0.333346853822
-0.429051793203
-0.714173632552
-0.151265604602
-0.391478072845
-0.316611900589
-0.302201805765
0.33922432443
0.65105904289
-0.592050807076
-0.536036504295
0.537317827582
0.406849413449
-0.203570638328
-0.774419880592
0.399875107993
0.462688886409
0.203864650827
0.652850592616
0.840859287309
0.751549285253
0.404623485855
0.87597374559
0.51049630535
0.275672848899
-0.997175860074
-0.396757232596
-0.852280186472
0.877018910956
0.841454397688
0.993607056749
1.25890136985
1.58855828023
1.67233174388
-1.48811220891
-1.26663010331
-1.58876745926
-1.84940234828
1.34747393848
1.31715668639
-1.16967901721
-1.40503984226
-1.31929275093
-1.54756513518
-1.45723286524
-1.36557304978
-1.58356102482
-1.28829698319
1.69412673679
1.626253206
2.09257674272
1.73291888556
3.3546228018
3.26434880045
2.52108305727
3.50261846071
2.23487183046
-3.5365624119
-1.43156939239
-2.34454820953
-0.978924171118
0.975496421803
-0.845015508719
-0.0789725763834
-3.59166804987
-3.40736259253
-0.0923035928744
-0.670114512525
3.13403816511
2.25111788691
2.45854707798
-2.16556692147
-3.81292110083
-3.70322282677
-2.20973092002
-1.84225906111
-3.12854748731
-3.63635518006
-2.45875973376
-2.26364741209
-2.44843917666
-2.40653985571
-2.33431401779
4.17485844497
4.78158146621
4.72294957756
4.25299808621
3.72365725668
3.68528144632
3.59946355904
3.79813676175
0.190812163657
-0.0610801794759
2.24408887699
2.39530476086
0.0784302043536
0.015141735887
2.25067727055
2.03673387669
3.8926852383
4.07476744269
4.22764772641
4.07194528912
2.43090766099
-0.126088136227
0.0826719358066
-0.0575000208097
0.0496125034501
0.0841779010561
-0.047768158163
-0.0881729231208
-0.0148293267492
0.0267757125524
0.0328639714373
-0.0424322443152
-0.0913807641388
-0.12279423554
-0.0666795433156
-0.0297675360309
0.0262491563021
-0.00648877645982
0.0539940632822
0.0178819197167
0.0421025781375
0.130833350396
-0.0877310368424
0.117469034431
-0.0506909769402
2.78699472336
4.69197837139
4.21601297311
2.93653201599
2.49902983472
3.39730090574
3.26032682275
2.09556800409
1.94594024389
-4.1481425766
-1.98735650008
-1.43506675265
-5.79395736334
-2.38675937617
-2.18165075212
0.589062404095
-0.806055386547
-2.55126263724
-2.54079503196
-3.9534459963
-3.98383496147
-2.84286630723
-3.83828763389
-4.57132740856
-5.37883995986
-3.03041768355
-3.31649165471
-0.561002359426
-0.188697929023
-2.52488462067
-0.228865973361
-0.33952054881
-4.30299436164
2.24832271183
-0.126189192077
-0.150210863739
3.00436834492
-2.90370461936
-0.0801231385188
-0.404216050165
-0.462689935621
-0.207678695249
2.21282868121
-0.292585390589
-0.069538872108
-0.416238091184
0.38830076563
0.724994877481
0.379982601018
0.170485989421
0.444874729639
0.966394072468
0.717300295843
0.923445895817
0.538216368533
0.821382783332
0.556487715543
0.653828503233
0.493196343862
0.673494791063
0.611633772055
0.627957372947
0.232937156303
0.684858946173
0.590840324584
0.178614410527
1.03132983997
0.166946979957
1.02664498931
0.201246704777
0.0309474406471
-0.540244792669
0.964100977772
0.639570288585
0.0695250716007
-0.204154975107
2.72722691173
0.674169799434
0.50366167399
0.252971261977
0.350594678871
-0.844651813338
0.188935076103
-5.83067217826
-4.87349471251
-2.75014244756
0.689867779257
-0.586486080539
-0.0468223461532
-0.298176968031
-0.126334391091
-2.80098383891
3.29727764582
2.47191124288
-4.41796235918
-0.0404320031893
-0.195488176207
-3.8081263071
-2.86630794707
-3.16969103872
-0.0557576662734
-0.124157582605
-0.276776521604
0.0519266660817
-0.0216501132813
-0.361863433771
-0.105182139748
-0.132561562778
-4.60953094655
-4.08612540414
-0.180168608988
-6.40021053085
-6.28688222601
-4.21845369028
-4.38870134984
4.60963753439
4.75897620324
6.67156482182
6.63299283923
-2.7860733062
-2.87584439047
4.37358028644
4.83256405106
3.32887261874
-0.292570131066
-4.05693061759
-3.92130778756

SCALARS scalar2 double
LOOKUP_TABLE default
4.07615851074
7.64770706137
7.6957063873
5.6895549515
-8.50507732474
-2.48553365218
12.2284541146
11.5494514477
8.55350719973
8.25762816786
7.39175017485
7.43342238125
7.50846385528
7.26944190082
7.16343388837
6.63549733439
6.05132063422
6.14678891942
6.62533955487
6.69462400298
6.94518743429
7.88932125427
7.75820330127
7.79811141482
8.42502625764
7.73975195578
7.46575695467
7.51354421842
7.13201652147
6.6245305812
7.72369738964
4.68715878327
8.53154233373
7.25115175682
7.97561463769
8.33743464159
7.82074237176
7.96942554196
8.45311190031
7.57076040007
7.26780368391
7.09089488583
6.34303999944
6.0971493323
6.63012190508
7.20195354227
7.37691602393
7.70942173667
7.65138269223
7.32235563088
7.47222913124
6.66840696457
7.15432332543
6.73779158432
1.55052231308
0.188156322123
-0.22501496811
-4.89931847335
-7.92358963083
-7.59157682523
-7.20664662299
-5.88905617071
-5.63239638535
-5.5493964961
-6.43000034813
-6.237537919
-6.51310273027
-7.79600853642
-7.52002146024
-7.09831479858
-7.5576134989
-7.02370434316
-6.61744003274
-6.40794875451
-5.81321985084
-5.47111742278
-6.20665810014
-7.90471349258
-5.96617192424
-7.74388350638
-7.62245609375
-7.43380330039
-7.39325450887
-6.29306001438
-8.56430059927
-7.11142411541
-5.90711632135
-5.8955821649
-6.06700065752
-5.74706096745
-5.95499321346
-6.6027840822
-6.6968980493
-7.01067384107
-7.29290987426
-6.81029824423
-7.32678634907
-7.48083307246
-6.32954120399
-6.25249273942
-6.73351496961
-5.94837253497
-6.04087953565
-6.31150056539
-7.46093161137
-8.74559934659
-9.81131645962
1.95727008087
-0.735343747978
-0.677727447091
-5.11862700684
-0.335595872798
-0.0566058915319
0.0140625086552
0.087121935059
0.0999660335186
0.00863269141281
0.226921438479
0.177005240528
0.226564658635
-0.105428221231
0.0156781889774
-0.0391224570081
-0.088136821602
0.138436678769
-0.0601768214559
0.187227148309
0.841684837704
-1.68367663967
-0.519730074014
-0.549492459225
-0.333346853822
-0.429051793203
-0.714173632552
-0.151265604602
-0.391478072845
-0.316611900589
-0.302201805765
0.33922432443
0.65105904289
-0.592050807076
-0.536036504295
0.537317827582
0.406849413449
-0.203570638328
-0.774419880592
0.399875107993
0.462688886409
0.203864650827
0.652850592616
0.840859287309
0.751549285253
0.404623485855
0.87597374559
0.51049630535
0.275672848899
-0.997175860074
-0.396757232596
-0.852280186472
0.877018910956
0.841454397688
0.993607056749
1.25890136985
1.58855828023
1.67233174388
-1.48811220891
-1.26663010331
-1.58876745926
-1.84940234828
1.34747393848
1.31715668639
-1.16967901721
-1.40503984226
-1.31929275093
-1.54756513518
-1.45723286524
-1.36557304978
-1.58356102482
-1.28829698319
1.69412673679
1.626253206
2.09257674272
1.73291888556
3.3546228018
3.26434880045
2.52108305727
3.50261846071
2.23487183046
-3.5365624119
-1.43156939239
-2.34454820953
-0.978924171118
0.975496421803
-0.845015508719
-0.0789725763834
-3.59166804987
-3.40736259253
-0.0923035928744
-0.670114512525
3.13403816511
2.25111788691
2.45854707798
-2.16556692147
-3.81292110083
-3.70322282677
-2.20973092002
-1.84225906111
-3.12854748731
-3.63635518006
-2.45875973376
-2.26364741209
-2.44843917666
-2.40653985571
-2.33431401779
4.17485844497
4.78158146621
4.72294957756
4.25299808621
3.72365725668
3.68528144632
3.59946355904
3.79813676175
0.190812163657
-0.0610801794759