# vtk DataFile Version 2.0
2D Simulation Python
ASCII
DATASET UNSTRUCTURED_GRID
FIELD FieldData 1
NODES 1 2 int
386 659

POINTS 386 double
0.0 1.0 0.0
1.725 0.9554851068368571 0.0
8.275 1.0445148931631427 0.0
10.0 1.0 0.0
10.0 -4.69059153497943e-17 0.0
0.0 0.0 0.0
0.1916666666663293 1.0221812164743365 0.0
0.3833333333324708 1.0393141468625229 0.0
0.574999999998553 1.0474994588536901 0.0
0.7666666666645966 1.044874234032915 0.0
0.9583333333312576 1.0320359547767766 0.0
1.149999999998384 1.01190652154157 0.0
1.341666666665662 0.9890672492358565 0.0
1.533333333332819 0.9687161927424045 0.0
1.92348484848444 0.9524780354468614 0.0
2.121969696968978 0.9610535080886419 0.0
2.320454545453434 0.9791214219981188 0.0
2.518939393937826 1.002278078582718 0.0
2.717424242422235 1.0248794983259908 0.0
2.915909090906411 1.0414170297692036 0.0
3.1143939393908 1.0478599749410678 0.0
3.312878787875129 1.042637992698285 0.0
3.511363636359531 1.0270238384883328 0.0
3.709848484843827 1.004823155246152 0.0
3.90833333332816 0.9814469227913901 0.0
4.106818181812215 0.9625926379394892 0.0
4.305303030296804 0.9528556617310794 0.0
4.503787878781365 0.9546091905761488 0.0
4.702272727265711 0.9674258363132237 0.0
4.900757575750005 0.9881817936664589 0.0
5.099242424235156 1.0118182063318106 0.0
5.297727272720327 1.0325741636855448 0.0
5.496212121205663 1.0453908094233546 0.0
5.694696969690998 1.0471443382691765 0.0
5.89318181817668 1.0374073620613449 0.0
6.09166666666213 1.0185530772096867 0.0
6.290151515147423 0.9951768447548957 0.0
6.488636363633031 0.9729761615124061 0.0
6.687121212118713 0.9573620073020522 0.0
6.885606060604342 0.952140025058916 0.0
7.084090909089381 0.9585829702305425 0.0
7.282575757574369 0.9751205016736598 0.0
7.481060606059355 0.9977219214169437 0.0
7.679545454544343 1.0208785780016403 0.0
7.878030303029329 1.0389464919112399 0.0
8.076515151514705 1.0475219645531262 0.0
8.46666666666447 1.031283807257843 0.0
8.658333333329285 1.010932750764735 0.0
8.84999999999549 0.9880934784591452 0.0
9.041666666661694 0.9679640452238537 0.0
9.233333333327899 0.9551257659674004 0.0
9.42499999999549 0.9525005411462204 0.0
9.616666666663775 0.9606858531372198 0.0
9.808333333331985 0.977818783525484 0.0
10.0 0.7999999999999998 0.0
10.0 0.6000000000013869 0.0
10.0 0.4000000000016644 0.0
10.0 0.2000000000008322 0.0
9.799999999999999 -0.023064912545193293 0.0
9.6 -0.040423873875960435 0.0
9.399999999999999 -0.047782508876316354 0.0
9.2 -0.04332038955918201 0.0
8.999999999999998 -0.028141384629310737 0.0
8.799999999999997 -0.00600057711351545 0.0
8.599999999999998 0.017624693011926748 0.0
8.399999999999997 0.03688984955366333 0.0
8.199999999999998 0.04702895016744971 0.0
7.999999999999997 0.045533716820709016 0.0
7.799999999999997 0.03277405026697616 0.0
7.599999999999998 0.011906521541380303 0.0
7.399999999999997 -0.011906521541381027 0.0
7.199999999999998 -0.03277405026697659 0.0
6.999999999999997 -0.045533716820709245 0.0
6.799999999999997 -0.047028950167449554 0.0
6.599999999999998 -0.036889849553662854 0.0
6.399999999999997 -0.01762469301192605 0.0
6.199999999999998 0.00600057711351603 0.0
5.999999999999997 0.028141384629311282 0.0
5.799999999999998 0.04332038955918223 0.0
5.599999999999998 0.04778250887631633 0.0
5.399999999999999 0.04042387387596033 0.0
5.199999999999998 0.023064912545192925 0.0
4.999999999999999 -1.935461706689377e-16 0.0
4.799999999999999 -0.02306491254519319 0.0
4.599999999999999 -0.04042387387596046 0.0
4.399999999999999 -0.047782508876316354 0.0
4.199999999999999 -0.043320389559182056 0.0
3.999999999999999 -0.028141384629310887 0.0
3.799999999999999 -0.006000577113515731 0.0
3.599999999999999 0.017624693011926568 0.0
3.399999999999998 0.036889849553663145 0.0
3.199999999999998 0.04702895016744969 0.0
2.999999999999999 0.04553371682070909 0.0
2.799999999999998 0.032774050266976294 0.0
2.599999999999998 0.011906521541380286 0.0
2.399999999999999 -0.011906521541380674 0.0
2.199999999999999 -0.032774050266976565 0.0
1.999999999999998 -0.04553371682070921 0.0
1.799999999999999 -0.04702895016744959 0.0
1.6 -0.03688984955366303 0.0
1.4 -0.01762469301192648 0.0
1.199999999999999 0.006000577113515985 0.0
0.9999999999999982 0.02814138462931122 0.0
0.7999999999999989 0.04332038955918214 0.0
0.6000000000000014 0.047782508876316354 0.0
0.3999999999999986 0.04042387387596028 0.0
0.1999999999999993 0.023064912545192974 0.0
0.0 0.1999999999995579 0.0
0.0 0.3999999999989749 0.0
0.0 0.5999999999989468 0.0
0.0 0.7999999999994734 0.0
0.658763056834341 0.561220743866038 0.0
9.341236643655877 0.530031259894686 0.0
8.741664046726271 0.5668177424772649 0.0
1.2583332297813277 0.5666715031914574 0.0
8.163207460616551 0.5868236654798946 0.0
1.8367745560498057 0.5568709824939491 0.0
2.430021202309297 0.5940631926568272 0.0
7.569879589737795 0.5996171723874553 0.0
3.0300268925996074 0.6182449807988172 0.0
6.969428748701638 0.5824185108389119 0.0
3.6281963345409443 0.6056117413663338 0.0
6.368306255805546 0.5852449899854784 0.0
4.229015502066075 0.5740109689863222 0.0
5.795312075542254 0.5437603798548338 0.0
4.802239727061337 0.5202702312558238 0.0
5.298792202996548 0.533074689501851 0.0
9.677482058199647 0.6851536906031231 0.0
0.32251788368074324 0.715598231942833 0.0
4.530246031681319 0.31976104857526316 0.0
3.9184203539368294 0.3634109725242366 0.0
6.068191238008214 0.34838062131371367 0.0
3.3189783939521047 0.3919497671751514 0.0
6.679999371238081 0.35520600785246764 0.0
7.879332056231426 0.38088682566817805 0.0
2.1206292383638683 0.3522484488517944 0.0
2.7197048534643438 0.3848855860288517 0.0
7.280087695049308 0.36382431469230553 0.0
9.037404855828221 0.6595004427357459 0.0
0.9625943397469684 0.6846267026636796 0.0
1.5318257851704369 0.3477973689258279 0.0
8.468167750250256 0.37143816701207966 0.0
8.458562953859783 0.6916513902144127 0.0
1.5414309595209768 0.666840350053684 0.0
0.9792630671534586 0.3761065809532541 0.0
9.020735971478333 0.35358463675986296 0.0
4.526922224520964 0.6706170294016705 0.0
3.921010009350267 0.692485942186113 0.0
6.0699100198230465 0.6992195532869335 0.0
2.1180221670406856 0.6753178740997258 0.0
7.881942841569705 0.7067706155964977 0.0
3.322937991264082 0.7226235646010013 0.0
6.675892413862193 0.6823626166364147 0.0
2.724975013104947 0.7143277581006505 0.0
7.274828129187539 0.6914955242078454 0.0
0.332810767588978 0.3185373794710968 0.0
9.667189163984062 0.2884591954786427 0.0
5.5814021740324185 0.34372726891537175 0.0
5.017093644614605 0.32269572464804464 0.0
5.509510138271774 0.7156179053194904 0.0
5.087292579414506 0.699709598128709 0.0
0.6618356883335103 0.7572725573140761 0.0
9.338164096454957 0.7132965661318874 0.0
8.747801783030113 0.7393634561956179 0.0
1.2521962584082333 0.7396278165755568 0.0
8.670571817752164 0.2796043438484557 0.0
1.3294253096564201 0.2714898355036227 0.0
0.6803415520024468 0.2598497652678405 0.0
9.31965821628996 0.21350859169337694 0.0
8.170190246057707 0.7657505578222608 0.0
1.829796866888313 0.7225538695198529 0.0
8.082518703855252 0.29870692964760254 0.0
1.9174629001912127 0.2561411200056455 0.0
7.4854979758626445 0.283594007456433 0.0
2.5144005071456395 0.28603701300201956 0.0
6.8854729692067265 0.26327641160437887 0.0
3.1140360434995733 0.30908161763816805 0.0
6.285173957003809 0.26956961387373735 0.0
3.7134259917788337 0.2873374964929197 0.0
2.422199423471835 0.806109118379188 0.0
7.577743435378812 0.8168636894712124 0.0
3.021328883837082 0.8419322462070707 0.0
6.978345579337794 0.7857581016440992 0.0
3.618181671220091 0.8234118922148114 0.0
6.379667998878852 0.7999399894944441 0.0
4.216655170037777 0.783238308804133 0.0
5.793682339814806 0.8716836208395017 0.0
4.8024620148270305 0.828335267690611 0.0
5.2995646907859255 0.20683416481380315 0.0
4.3135928598987165 0.24837769261593465 0.0
4.743026712771694 0.22330676971961924 0.0
5.855862309459746 0.2611753377484395 0.0
5.298350748086371 0.7341119890555382 0.0
0.1948182487527163 0.5097399500632591 0.0
9.805181712731393 0.49434238052436286 0.0
9.48699286025305 0.13386075963578992 0.0
0.5130070519077745 0.19056492821661575 0.0
9.568973424217415 0.4980717404834582 0.0
0.43102645211077284 0.5259167740065893 0.0
9.509167695836357 0.8081898276662798 0.0
0.4908322306070013 0.8642531252066459 0.0
9.823694347611855 0.8151752904917436 0.0
0.17630563580433878 0.84020640066983 0.0
7.6908907304576415 0.2048758317010048 0.0
2.3090683144565496 0.17950579977154235 0.0
8.876766568642589 0.1825950125007584 0.0
1.1232323767481374 0.2003592677670541 0.0
7.091103721184859 0.16982659157890745 0.0
2.908691623105028 0.21955267915269833 0.0
6.491266520608812 0.1736557870825065 0.0
3.5082730636394888 0.21086284491288487 0.0
1.7131468994924406 0.16180195754283092 0.0
8.286845953248589 0.21354028097333266 0.0
4.107898177281067 0.16684385262924398 0.0
8.577707812702391 0.8400536269941516 0.0
1.4222896551457382 0.8162525517046919 0.0
8.923432110124217 0.8136138676741734 0.0
1.0765671263843188 0.8383235828808158 0.0
0.8418021409494378 0.8491173462013604 0.0
9.158197543181144 0.8002045027802349 0.0
8.346029109814978 0.8533206258154717 0.0
1.6539654653514215 0.805140267234781 0.0
5.592544847319747 0.5224868544687542 0.0
5.005112045198772 0.505296869908017 0.0
7.789613355175158 0.858430111947261 0.0
2.21035947757527 0.8193354400825447 0.0
7.777269864137981 0.5607403858444713 0.0
2.2226732122780803 0.5412304253054434 0.0
2.8150390403155168 0.865975412262922 0.0
7.184806147449756 0.8220555882000857 0.0
3.41180549753924 0.8677084467401913 0.0
6.587226088903434 0.8189177478470476 0.0
4.008977823966299 0.8238444690252872 0.0
5.98494767050758 0.8622697304118578 0.0
4.61119918465791 0.8173068965073811 0.0
7.175589512191561 0.5465737698803309 0.0
2.8240993089505997 0.5716850964392276 0.0
6.575578533227432 0.5421510624788702 0.0
3.4225980822689728 0.5720840698984363 0.0
5.978268871988641 0.5422956848300525 0.0
4.021968122317911 0.5437689764454616 0.0
4.619275526467537 0.517621435180631 0.0
8.549281344778072 0.546991827164663 0.0
[...]
POINT_DATA 386
VECTORS vector double
1.0 0.0 0.0
0.0 0.0 0.0
0.0 0.0 0.0
0.0 0.0 0.0
0.0 0.0 0.0
1.0 0.0 0.0
0.0 0.0 0.0
0.0 0.0 0.0
0.0 0.0 0.0
0.0 0.0 0.0
0.0 0.0 0.0
0.0 0.0 0.0
0.0 0.0 0.0
0.0 0.0 0.0
0.0 0.0 0.0
0.0 0.0 0.0
0.0 0.0 0.0
0.0 0.0 0.0
0.0 0.0 0.0
0.0 0.0 0.0
0.0 0.0 0.0
0.0 0.0 0.0
0.0 0.0 0.0
0.0 0.0 0.0
0.0 0.0 0.0
0.0 0.0 0.0
0.0 0.0 0.0
0.0 0.0 0.0
0.0 0.0 0.0
0.0 0.0 0.0
0.0 0.0 0.0
0.0 0.0 0.0
0.0 0.0 0.0
0.0 0.0 0.0
0.0 0.0 0.0
0.0 0.0 0.0
0.0 0.0 0.0
0.0 0.0 0.0
0.0 0.0 0.0
0.0 0.0 0.0
0.0 0.0 0.0
0.0 0.0 0.0
0.0 0.0 0.0
0.0 0.0 0.0
0.0 0.0 0.0
0.0 0.0 0.0
0.0 0.0 0.0
0.0 0.0 0.0
0.0 0.0 0.0
0.0 0.0 0.0
0.0 0.0 0.0
0.0 0.0 0.0
0.0 0.0 0.0
0.0 0.0 0.0
0.896451180528 0.096433911803 0.0
1.36395107255 0.0014461350401 0.0
1.40085854775 -0.00344513043679 0.0
1.0576361482 -0.0778138751403 0.0
0.0 0.0 0.0
0.0 0.0 0.0
0.0 0.0 0.0
0.0 0.0 0.0
0.0 0.0 0.0
0.0 0.0 0.0
0.0 0.0 0.0
0.0 0.0 0.0
0.0 0.0 0.0
0.0 0.0 0.0
0.0 0.0 0.0
0.0 0.0 0.0
0.0 0.0 0.0
0.0 0.0 0.0
0.0 0.0 0.0
0.0 0.0 0.0
0.0 0.0 0.0
0.0 0.0 0.0
0.0 0.0 0.0
0.0 0.0 0.0
0.0 0.0 0.0
0.0 0.0 0.0
0.0 0.0 0.0
0.0 0.0 0.0
0.0 0.0 0.0
0.0 0.0 0.0
0.0 0.0 0.0
0.0 0.0 0.0
0.0 0.0 0.0
0.0 0.0 0.0
0.0 0.0 0.0
0.0 0.0 0.0
0.0 0.0 0.0
0.0 0.0 0.0
0.0 0.0 0.0
0.0 0.0 0.0
0.0 0.0 0.0
0.0 0.0 0.0
0.0 0.0 0.0
0.0 0.0 0.0
0.0 0.0 0.0
0.0 0.0 0.0
0.0 0.0 0.0
0.0 0.0 0.0
0.0 0.0 0.0
0.0 0.0 0.0
0.0 0.0 0.0
0.0 0.0 0.0
0.0 0.0 0.0
1.0 0.0 0.0
1.0 0.0 0.0
1.0 0.0 0.0
1.0 0.0 0.0
1.23893373604 -0.0530418282155 0.0
1.43024342795 -0.041958595987 0.0
1.42298364135 -0.0558082929598 0.0
1.3458657042 -0.0391433350125 0.0
1.40875433546 0.00109908534754 0.0
1.41572957168 0.00227934607372 0.0
1.38802204971 0.0426542695571 0.0
1.38826470479 0.0412186509651 0.0
1.37282329525 0.0206663937939 0.0
1.41710616244 0.00027908369931 0.0
1.39581545193 -0.0352134291701 0.0
1.40606394814 -0.052190124478 0.0
1.42669051181 -0.0286887065001 0.0
1.39124898989 -0.00688940203423 0.0
1.41603462144 0.0373110695061 0.0
1.42841824937 0.0455514543831 0.0
1.2725531983 0.0133138321184 0.0
1.11250749138 -0.0749412384136 0.0
1.23899457391 0.0157652089768 0.0
1.3107257022 -0.041626870807 0.0
1.26415042274 -0.0423078793359 0.0
1.35661110634 -0.0111236539306 0.0
1.28848891649 -0.0304831389892 0.0
1.3431128647 0.0341454497861 0.0
1.32488957769 0.0357484062262 0.0
1.35712780231 0.0489204315016 0.0
1.31500452009 0.0323263817468 0.0
1.35055666913 -0.0600704314279 0.0
1.23676882886 -0.0643990369219 0.0
1.33151961074 -0.00100158105711 0.0
1.32357495349 -0.0385004238558 0.0
1.31756771549 -0.0399658560975 0.0
1.29743391903 -0.0289921325614 0.0
1.33991117439 -0.0246611757031 0.0
1.31986127712 -0.0647371478917 0.0
1.33135524122 0.0140025976889 0.0
1.29961262458 -0.0440268402154 0.0
1.28940346292 -0.0391999760309 0.0
1.30010489579 0.0435588245426 0.0
1.26462716476 0.0241514956324 0.0
1.22244328298 -0.00828136944154 0.0
1.32292911588 -0.0328422346689 0.0
1.21717706797 0.0448728039504 0.0
1.28552293731 0.0390631939975 0.0
1.16403401662 0.121632912012 0.0
1.26533596941 -0.0044244358791 0.0
1.26030750188 0.0176062996079 0.0
1.23882018849 0.0436484255387 0.0
1.19451601128 0.051025423845 0.0
1.23280872873 0.0268674281386 0.0
1.13530942933 -0.0803950590323 0.0
1.24994323555 -0.0303163967573 0.0
1.21542991311 -0.0595375734853 0.0
1.14717857958 -0.0536469081866 0.0
1.16192504557 -0.0458848120615 0.0
1.2025470462 -0.022218514754 0.0
1.2457830639 0.0137418368704 0.0
1.07125367764 -0.0287015380595 0.0
1.15955158223 -0.00438623896793 0.0
1.22564803241 -0.00694247990744 0.0
1.2067335853 0.0166024325391 0.0
1.15024196092 -0.00108897364685 0.0
1.16817173292 0.0551853102351 0.0
1.20616771387 0.0411504617582 0.0
1.12070866144 0.0049491702715 0.0
1.24035222306 0.00678365986136 0.0
1.13255748055 -0.0447703535007 0.0
1.16362902927 -0.0489803027854 0.0
0.989839261538 0.0558638717024 0.0
0.969614104362 0.0563714417651 0.0
0.861969736502 0.0170871460914 0.0
1.12505422287 0.0120996968269 0.0
0.958384099178 -0.0501720440781 0.0
1.08048970473 -0.0718159803396 0.0
1.12949179514 -0.0344834040397 0.0
0.830186302244 -0.0253810878803 0.0
0.957179057367 0.0580011775046 0.0
1.01106088604 0.0483205911999 0.0
1.09265712907 -0.0198766213155 0.0
0.93515210896 -0.00577061401146 0.0
1.05238969894 0.00836858371448 0.0
1.10119864704 0.053969705959 0.0
1.01741332769 0.0228035230302 0.0
1.43444840432 -0.00710702734852 0.0
0.789764542407 0.00367679273244 0.0
1.18180495936 0.082078458865 0.0
1.44078001614 -0.0179933461831 0.0
1.135510256 -0.00638314642487 0.0
0.93460691304 0.00309028334566 0.0
0.943807753456 -0.0580259092992 0.0
0.823190205091 -0.0412940035941 0.0
1.09471005497 -0.0897762193625 0.0
0.982526101573 0.0471707332251 0.0
0.904886670342 0.052245956251 0.0
0.884779853628 -0.0649113361036 0.0
1.08133299253 -0.0329865730226 0.0
0.85006391655 0.0116116273778 0.0
1.04784455508 0.0487992764188 0.0
0.846151637857 -0.0510179793208 0.0
0.988986607833 -0.0347618085799 0.0
0.868916934621 -0.000170449023186 0.0
1.00527827458 -0.0326749512369 0.0
0.826966218338 -0.0222821749853 0.0
0.873095456829 -0.0567492523899 0.0
0.929108503983 -0.0459774412343 0.0
0.973635923186 -0.0526638488205 0.0
0.847246302549 -0.0694971200278 0.0
0.84642141603 -0.0532255201265 0.0
1.0101295782 -0.0609490059916 0.0
0.826371983615 -0.0160663064525 0.0
0.982232725606 -0.0476971015019 0.0
1.39361353381 0.002489332072 0.0
1.40924429378 0.0642486459545 0.0
0.800121793184 0.0268087939392 0.0
0.937896152908 0.0573674453117 0.0
1.43954372476 0.0447227207224 0.0
1.44848124426 0.0404312387142 0.0
0.760402831788 0.0291710644344 0.0
0.974261594646 0.0423175286866 0.0
0.779599529519 -0.0262141495748 0.0
1.00935836234 -0.0539555338548 0.0
0.975401380491 -0.0493575895037 0.0
0.866658975045 -0.0371980782486 0.0
1.00604590273 0.0372902555186 0.0
1.44856098545 0.0270300276964 0.0
1.43215046479 0.0324384088804 0.0
1.44765482777 -0.0410904293201 0.0
1.43830734433 -0.0270422316721 0.0
1.41158640837 -0.0282691968948 0.0
1.45816189713 -0.0465463289729 0.0
1.44269672856 0.0222441915513 0.0
1.44115410572 -0.0437804499442 0.0
1.40426704678 -0.0168906605004 0.0
1.34717741951 -0.0462465689393 0.0
1.31765994469 -0.050882068316 0.0
1.44989334355 -0.0637152260669 0.0
1.44333954317 -0.0638659329481 0.0
1.44483650147 -0.00916611675869 0.0
1.43441739482 -0.00761487990748 0.0
1.45232411863 -0.0248479501379 0.0
1.44073780552 0.0287203990887 0.0
1.43342064283 0.0185058737946 0.0
1.43639400193 -0.0350597692303 0.0
1.4106277273 -0.0453763660724 0.0
1.42080879422 0.0174117893387 0.0
1.43567158334 -0.0272071420506 0.0
1.42192643167 0.0584130949601 0.0
1.424214409 0.0313894484404 0.0
1.02674020669 -0.00169388477101 0.0
0.905634377347 -0.0539279981207 0.0
0.9135119686 -0.050078179214 0.0
0.995110459246 0.0445221860424 0.0
0.805896445263 -0.00162059543298 0.0
0.74328512227 -0.00113490263687 0.0
1.03429681746 -0.0193892263801 0.0
0.809191477257 0.04565993377 0.0
0.913387476116 0.0575116950623 0.0
0.881902810151 0.10264885897 0.0
1.02482869633 -0.0524860058421 0.0
1.17220111206 0.252984531189 0.0
0.890122276293 0.0139230722586 0.0
0.831110388649 -0.0328545218235 0.0
1.14085744035 -0.0461238220743 0.0
1.34857545784 -0.0299534681383 0.0
1.18732035616 -0.0928613590879 0.0
0.822694269128 -0.0277479958961 0.0
0.871386347233 -0.0384888465505 0.0
0.926207941778 0.0455669459116 0.0
0.756902107026 0.0178032539473 0.0
0.799639052583 -0.036079111574 0.0
0.673494333461 -0.0155242067683 0.0
0.791649849675 0.0483020980715 0.0
0.911222770106 0.0446216051997 0.0
0.725563363952 -0.0135892399218 0.0
0.947581044433 -0.0311529766361 0.0
1.34791945453 -0.0561375187017 0.0
1.35419222788 -0.0192923055792 0.0
0.774760857997 -0.0467597519579 0.0
1.37992094189 -0.00371266859987 0.0
1.36183415391 0.00290771269168 0.0
0.928811158386 0.0549224453918 0.0
0.882314027088 0.200783862332 0.0
1.38594635812 0.0361017073993 0.0
1.38129114684 0.0501712932805 0.0
0.824684484644 -0.028557457626 0.0
1.00757242825 0.0269406292781 0.0
1.41104072205 0.0247798122811 0.0
1.35009488938 0.0149020352657 0.0
1.33625201156 -0.0353231339911 0.0
1.38368425114 -0.0345050789295 0.0
0.903175789647 0.0850791895381 0.0
1.34632653398 -0.0393862365109 0.0
1.31635862425 0.0155379348117 0.0
1.30464019166 0.0135230144404 0.0
1.31308650112 -0.0366959883003 0.0
1.26642681487 -0.0428432028463 0.0
1.31752791906 0.0371844376794 0.0
1.33128867159 -0.0419291063881 0.0
1.27837278523 -0.02639769802 0.0
1.25914375198 0.0354964125553 0.0
1.2808185143 0.0504545464712 0.0
1.33700056964 -0.0511353363259 0.0
1.26076125674 -0.0252349152816 0.0
1.23547697674 0.0371191635378 0.0
1.31696050024 0.022342917994 0.0
1.33392208826 -0.066410420898 0.0
1.23330385434 -0.0458946216533 0.0
1.34742557726 -0.00889599288276 0.0
1.32900644829 0.0101742046183 0.0
1.27852002606 0.0194696760026 0.0
1.31518411113 -0.0056151194802 0.0
1.28956300321 -0.0211591652497 0.0
1.21243502511 -0.0809754381644 0.0
1.35238351557 -0.0409651174246 0.0
1.30164419103 -0.0519750655449 0.0
1.31269504921 -0.0596780467236 0.0
1.23518814744 0.00226172317445 0.0
1.33435249403 -0.0154546981294 0.0
1.26399008951 0.0469490940489 0.0
1.31481257245 -0.0191202749563 0.0
1.24401275743 0.0446655849958 0.0
1.28562028819 0.0493321928719 0.0
1.32201724504 0.0246169978863 0.0
1.31744048443 0.0550292763441 0.0
0.855960748266 -0.0924138195851 0.0
1.27058386884 -0.0199873136477 0.0
1.3087183051 0.0654910078531 0.0
1.42963717452 0.0527004932882 0.0
1.41679618883 0.0433094307051 0.0
1.30649082493 0.00569967648091 0.0
1.03378080044 0.114738014845 0.0
0.694305675536 0.00980744766843 0.0
1.19094165501 0.190116101622 0.0
1.04553450545 -0.0567513854281 0.0
1.28023599093 0.00157921187907 0.0
1.30906587691 -0.0431251509509 0.0
1.30018989908 -0.00253084667564 0.0
1.39905256708 -0.0588796665409 0.0
1.38217691833 0.00372519379688 0.0
0.911595151157 0.0239163500392 0.0
0.771926584858 0.0648110322106 0.0
1.02674523528 -0.0782119965983 0.0
0.746469919906 -0.0387026580578 0.0
1.41787243081 0.00560173314072 0.0
1.40053868644 0.0320111340606 0.0
0.521223333094 0.0123826602395 0.0
0.675752209884 -0.0307624156084 0.0
0.610140171434 -0.0652837615311 0.0
1.4235754435 0.0598857256881 0.0
1.41239020686 0.0300485152226 0.0
1.37674274893 0.0134725791446 0.0
1.36976079926 -0.0115413701493 0.0
1.43922044214 0.0246840693395 0.0
1.39189328572 -0.0254213106614 0.0
1.41588136469 -0.0255429759944 0.0
1.37943620328 -0.0517517653198 0.0
0.816141618156 0.0184423433636 0.0
0.561893978533 -0.0108395422093 0.0
1.39609496181 -0.00894050529642 0.0
0.695112348141 0.0522028924048 0.0
0.685121908585 0.0375660344053 0.0
0.576762718677 0.0133889015544 0.0
0.789387308514 -0.00221054943711 0.0
0.6844960332 -0.030909597051 0.0
0.810395352791 -0.0355336609414 0.0
0.730178447355 -0.0505369948852 0.0
0.700734007968 -0.0539184971979 0.0
0.759483949711 -0.00656290341249 0.0
0.679497349981 -0.0675427054069 0.0
0.600675167149 0.00269025126195 0.0
0.820371984629 -0.0150900124627 0.0
0.525867534232 0.0613318074825 0.0
1.09312877 0.0426556142023 0.0
0.944137518126 -0.0165242924471 0.0
0.539632822379 0.0134393498826 0.0

SCALARS scalar1 double
LOOKUP_TABLE default
3.89654677741
8.06291830934
4.4917418046
4.91778258507
-6.40160671662
-2.30622525528
8.88611168958
7.71719464429
5.51787343285
4.85959054566
4.9253245373
5.50630607278
6.47417496171
6.96729096127
8.42070628637
7.57037070479
6.62667225002
5.84255817343
5.01345498381
4.58421561774
4.4493860908
4.59361017368
5.27006222431
6.02711940197
7.19020402217
7.82544072035
8.03839514245
8.47840206295
7.97866841235
6.84978859323
7.68577981508
3.89085704659
6.34585024113
5.08644725521
5.50178504283
6.01647928871
6.53041504662
7.43628297747
8.53062750064
8.32592553203
7.98804204278
7.3839232426
6.1781537762
5.27781467513
4.63172920436
4.52916221342
4.88984252512
5.76119614997
6.67084664507
7.08407068843
7.93976091446
7.79750039157
7.85986086445
6.31849775665
3.38339834246
1.16872420728
-0.679199346007
-3.00641154516
-5.7051906201
-5.07812267626
-4.26712246739
-4.01683694957
-4.80215659679
-5.17295588579
-6.61510643011
-6.97749943994
-7.39525824944
-8.00497077821
-6.89640522625
-6.0280655834
-5.48038930338
-4.72089846383
-4.04624922162
-4.12394612203
-4.52758540651
-4.65197769716
-5.67630041989
-7.86065712281
-6.18370971748
-7.60660987602
-7.19158765016
-6.58245571677
-5.98253974297
-4.13556781305
-5.2702514746
-3.95373146963
-3.90194376597
-4.73318771973
-5.40353525273
-5.99336138707
-6.91022436829
-7.97704030786
-7.33084160375
-6.9767683131
-6.43134807576
-5.17954462025
-4.83293062446
-4.33863715838
-4.21249044903
-4.90837400585
-5.98984600283
-6.56966163768
-7.81926422469
-8.98681592551
-10.24513497
-12.2384696167
-12.6474193132
3.410694339
0.147739065129
0.0346501453153
-1.83490507029
-0.0380418490977
0.287155726758
0.315081460678
0.57329256891
0.452016467215
0.573475956875
0.851145145469
0.741117401326
0.901073525966
0.543544930365
0.637842667753
0.349773523491
0.461388560808
-0.016701923434
0.0908833623989
0.0578829981463
1.96052797139
-0.689172350222
-1.79425922916
-1.51953694366
-1.49489277299
-1.22852268956
-1.44699601298
-1.28773200257
-1.38123073004
-1.14607544466
-1.33885732854
1.40182389363
1.31466930204
-1.17887311912
-1.44012455029
1.65329761746
1.46478168743
-0.0870716458092
-1.48026786159
1.50158127859
1.68385894235
1.30223175799
1.65525173709
1.88448560265
2.0358881366
1.49712608129
2.0590256542
1.7126726444
1.04035524154
-1.88994730321
-1.52098063884
-1.68049116236
1.54382450556
1.7049753065
1.58120952276
2.19071262794
2.34120901844
2.19155718068
-2.40602613051
-1.94417879364
-1.53151284448
-2.85042792379
2.59947879502
2.20499506003
-2.1914103129
-2.50581042741
-2.21539675304
-2.23451930406
-2.38685001332
-2.0556012104
-2.38796430624
-2.30540336138
3.2255567813
3.30437503182
3.57635772396
3.17306658569
3.43300523587
3.1557135247
3.16949179572
3.8482567119
3.68399237681
-3.14309697478
-2.62518742512
-2.79791100933
-2.41633798619
1.89691862156
-0.0105766325274
0.139678610577
-3.72380226267
-3.03863731815
0.109399167036
-0.112815264535
3.88135731293
3.18582953173
3.81040178197
0.0916548240855
-3.2402795172
-3.52274831838
-3.40129651032
-2.85790225703
-3.34504349003
-3.22890384085
-3.37594692319
-3.24141730578
-3.69899477613
-3.33422395368
-3.55498081758
3.74481931093
3.44325491655
3.58103962144
3.45463025134
3.36970980778
3.52630036856
3.71303979454
3.48221824499
-0.115032769493
-0.102669698282
3.70957636252
3.63059658984
0.31196435927
0.403999971491
3.84135802185
3.86656009927
3.88779721858
3.86598879376
3.82754461871
3.92029638441
3.76173334966
0.281597780273
0.49951630477
0.0903375591834
0.314690323665
-0.0543513198468
0.137700461431
0.0784457106611
0.0709719385776
0.398215971311
0.315335474383
0.165256410502
0.0161876638951
0.00557117498904
0.158401985418
0.307609888096
0.0736921574175
0.37463577299
0.253028918173
0.235482238591
0.012309631433
0.46260088334
0.195653069293
0.561012739434
0.375826394379
3.83222097137
3.86698815673
3.77303069855
3.73892183405
3.79855515457
3.82820576294
3.81128893899
3.76533205783
3.75041657646
-3.17111535024
-3.02951600115
0.183471098949
-3.83573069435
-3.48883288824
-2.92380009026
1.52558751607
-0.311866784203
-3.94722622639
-3.81966480987
-3.79546773352
-3.85402491385
-4.01019528585
-3.9205712997
-3.65080640495
-3.71454973911
-3.67775708043
-3.79120149435
-1.23805626422
-0.204067470048
-3.76813293889
-1.12327590723
-0.95352011724
-3.27454070256
3.69146062871
-0.899729999184
-0.961886341055
3.6056786498
-3.20456978102
-0.802599510678
-1.05343914795
-1.14986738055
-1.00724906706
3.74702633248
-1.20731320149
-1.19205964407
-1.34940602917
1.44860634313
1.47792503179
1.49138704715
1.54404734688
1.35779181644
1.96476552132
1.76652275218
1.60512937581
1.89569935741
2.08838758121
1.71206950103
1.42641219748
1.27916608644
1.60420475864
1.55128649823
1.67154977819
1.37976725813
1.62786498702
1.05086617173
1.28134978172
1.88532139779
1.30905474758
2.18359220357
1.48753076762
0.439071879823
-1.37282426653
2.03911241796
1.80368527316
-1.00745875347
-1.10409803937
3.18016794346
1.38564924738
1.50123753959
0.437843282159
0.406260536648
-1.65131399395
1.44954205074
-4.23612806418
-3.90429912891
-1.06672271166
1.96318025646
-1.33418398766
0.148667800823
-0.908219329494
-0.206551520272
-4.16798654591
4.54957477929
3.39686880203
-3.98806882355
-0.775957355001
-0.630946669533
-3.84042254553
-4.15885010381
-4.10208704856
-0.502027867338
-0.627833067407
-1.07528622298
-0.965797566231
-0.543743445482
-0.735998593083
-0.766649080893
-0.855560972044
-4.61455899359
-3.87741305264
-0.8893811798
-4.17966685824
-4.10529321137
-4.00740357669
-4.57953156236
3.99426015664
4.94765258156
4.43606096305
4.19621073433
-4.31810819311
-4.26535203588
4.16191154046
4.96173292967
4.80451851671
1.82403730929
-5.09121479884
-3.86267150133

SCALARS scalar2 double
LOOKUP_TABLE default
3.89654677741
8.06291830934
4.4917418046
4.91778258507
-6.40160671662
-2.30622525528
8.88611168958
7.71719464429
5.51787343285
4.85959054566
4.9253245373
5.50630607278
6.47417496171
6.96729096127
8.42070628637
7.57037070479
6.62667225002
5.84255817343
5.01345498381
4.58421561774
4.4493860908
4.59361017368
5.27006222431
6.02711940197
7.19020402217
7.82544072035
8.03839514245
8.47840206295
7.97866841235
6.84978859323
7.68577981508
3.89085704659
6.34585024113
5.08644725521
5.50178504283
6.01647928871
6.53041504662
7.43628297747
8.53062750064
8.32592553203
7.98804204278
7.3839232426
6.1781537762
5.27781467513
4.63172920436
4.52916221342
4.88984252512
5.76119614997
6.67084664507
7.08407068843
7.93976091446
7.79750039157
7.85986086445
6.31849775665
3.38339834246
1.16872420728
-0.679199346007
-3.00641154516
-5.7051906201
-5.07812267626
-4.26712246739
-4.01683694957
-4.80215659679
-5.17295588579
-6.61510643011
-6.97749943994
-7.39525824944
-8.00497077821
-6.89640522625
-6.0280655834
-5.48038930338
-4.72089846383
-4.04624922162
-4.12394612203
-4.52758540651
-4.65197769716
-5.67630041989
-7.86065712281
-6.18370971748
-7.60660987602
-7.19158765016
-6.58245571677
-5.98253974297
-4.13556781305
-5.2702514746
-3.95373146963
-3.90194376597
-4.73318771973
-5.40353525273
-5.99336138707
-6.91022436829
-7.97704030786
-7.33084160375
-6.9767683131
-6.43134807576
-5.17954462025
-4.83293062446
-4.33863715838
-4.21249044903
-4.90837400585
-5.98984600283
-6.56966163768
-7.81926422469
-8.98681592551
-10.24513497
-12.2384696167
-12.6474193132
3.410694339
0.147739065129
0.0346501453153
-1.83490507029
-0.0380418490977
0.287155726758
0.315081460678
0.57329256891
0.452016467215
0.573475956875
0.851145145469
0.741117401326
0.901073525966
0.543544930365
0.637842667753
0.349773523491
0.461388560808
-0.016701923434
0.0908833623989
0.0578829981463
1.96052797139
-0.689172350222
-1.79425922916
-1.51953694366
-1.49489277299
-1.22852268956
-1.44699601298
-1.28773200257
-1.38123073004
-1.14607544466
-1.33885732854
1.40182389363
1.31466930204
-1.17887311912
-1.44012455029
1.65329761746
1.46478168743
-0.0870716458092
-1.48026786159
1.50158127859
1.68385894235
1.30223175799
1.65525173709
1.88448560265
2.0358881366
1.49712608129
2.0590256542
1.7126726444
1.04035524154
-1.88994730321
-1.52098063884
-1.68049116236
1.54382450556
1.7049753065
1.58120952276
2.19071262794
2.34120901844
2.19155718068
-2.40602613051
-1.94417879364
-1.53151284448
-2.85042792379
2.59947879502
2.20499506003
-2.1914103129
-2.50581042741
-2.21539675304
-2.23451930406
-2.38685001332
-2.0556012104
-2.38796430624
-2.30540336138
3.2255567813
3.30437503182
3.57635772396
3.17306658569
3.43300523587
3.1557135247
3.16949179572
3.8482567119
3.68399237681
-3.14309697478
-2.62518742512
-2.79791100933
-2.41633798619
1.89691862156
-0.0105766325274
0.139678610577
-3.72380226267
-3.03863731815
0.109399167036
-0.112815264535
3.88135731293
3.18582953173
3.81040178197
0.0916548240855
-3.2402795172
-3.52274831838
-3.40129651032
-2.85790225703
-3.34504349003
-3.22890384085
-3.37594692319
-3.24141730578
-3.69899477613
-3.33422395368
-3.55498081758
3.74481931093
3.44325491655
3.58103962144
3.45463025134
3.36970980778
3.52630036856
3.71303979454
3.48221824499
-0.115032769493