# vtk DataFile Version 2.0
2D Simulation Python
ASCII
DATASET UNSTRUCTURED_GRID
FIELD FieldData 1
NODES 1 2 int
386 659

POINTS 386 double
0.0 1.0 0.0
1.725 0.9740751110762403 0.0
8.275 1.0259248889237595 0.0
10.0 1.0 0.0
10.0 -2.7317388831060464e-17 0.0
0.0 0.0 0.0
0.1916666666663293 1.0129180490489678 0.0
0.3833333333324708 1.0228960426077618 0.0
0.574999999998553 1.0276630607695176 0.0
0.7666666666645966 1.026134164325151 0.0
0.9583333333312576 1.018657319160819 0.0
1.149999999998384 1.0069342017131724 0.0
1.341666666665662 0.9936329095938112 0.0
1.533333333332819 0.9817807216723373 0.0
1.92348484848444 0.9723238322068124 0.0
2.121969696968978 0.977318074805399 0.0
2.320454545453434 0.9878405904828054 0.0
2.518939393937826 1.0013267230362681 0.0
2.717424242422235 1.014489492948266 0.0
2.915909090906411 1.0241207339840965 0.0
3.1143939393908 1.027873020602202 0.0
3.312878787875129 1.0248318067524944 0.0
3.511363636359531 1.015738328485616 0.0
3.709848484843827 1.0028089422468178 0.0
3.90833333332816 0.9891949315914479 0.0
4.106818181812215 0.9782144438088295 0.0
4.305303030296804 0.9725437567933359 0.0
4.503787878781365 0.9735649889541417 0.0
4.702272727265711 0.9810292350412008 0.0
4.900757575750005 0.9931172319036631 0.0
5.099242424235156 1.0068827680953292 0.0
5.297727272720327 1.018970764958082 0.0
5.496212121205663 1.0264350110455691 0.0
5.694696969690998 1.027456243206813 0.0
5.89318181817668 1.0217855561916562 0.0
6.09166666666213 1.0108050684091792 0.0
6.290151515147423 0.9971910577537922 0.0
6.488636363633031 0.9842616715148143 0.0
6.687121212118713 0.9751681932477017 0.0
6.885606060604342 0.9721269793977886 0.0
7.084090909089381 0.9758792660157556 0.0
7.282575757574369 0.9855105070515305 0.0
7.481060606059355 0.9986732769635348 0.0
7.679545454544343 1.0121594095170543 0.0
7.878030303029329 1.022681925194532 0.0
8.076515151514705 1.0276761677931803 0.0
8.46666666666447 1.0182192783278068 0.0
8.658333333329285 1.0063670904065334 0.0
8.84999999999549 0.9930657982872441 0.0
9.041666666661694 0.981342680839548 0.0
9.233333333327899 0.9738658356750327 0.0
9.42499999999549 0.9723369392304302 0.0
9.616666666663775 0.9771039573920884 0.0
9.808333333331985 0.9870819509509277 0.0
10.0 0.7999999999999998 0.0
10.0 0.6000000000013869 0.0
10.0 0.4000000000016644 0.0
10.0 0.2000000000008322 0.0
9.799999999999999 -0.013432702030282682 0.0
9.6 -0.02354233304035077 0.0
9.399999999999999 -0.027827905383870862 0.0
9.2 -0.025229225718678496 0.0
8.999999999999998 -0.016389172675353853 0.0
8.799999999999997 -0.003494657272931416 0.0
8.599999999999998 0.010264389649886421 0.0
8.399999999999997 0.02148416370646869 0.0
8.199999999999998 0.027389042692382373 0.0
7.999999999999997 0.0265182384362138 0.0
7.799999999999997 0.019087176276917816 0.0
7.599999999999998 0.006934201713061962 0.0
7.399999999999997 -0.006934201713062386 0.0
7.199999999999998 -0.01908717627691806 0.0
6.999999999999997 -0.026518238436213936 0.0
6.799999999999997 -0.02738904269238228 0.0
6.599999999999998 -0.021484163706468416 0.0
6.399999999999997 -0.010264389649886015 0.0
6.199999999999998 0.0034946572729317527 0.0
5.999999999999997 0.01638917267535417 0.0
5.799999999999998 0.02522922571867862 0.0
5.599999999999998 0.027827905383870845 0.0
5.399999999999999 0.023542333040350697 0.0
5.199999999999998 0.01343270203028247 0.0
4.999999999999999 -1.1271874691065692e-16 0.0
4.799999999999999 -0.01343270203028262 0.0
4.599999999999999 -0.023542333040350784 0.0
4.399999999999999 -0.027827905383870862 0.0
4.199999999999999 -0.02522922571867852 0.0
3.999999999999999 -0.016389172675353943 0.0
3.799999999999999 -0.0034946572729315792 0.0
3.599999999999999 0.01026438964988631 0.0
3.399999999999998 0.021484163706468582 0.0
3.199999999999998 0.027389042692382355 0.0
2.999999999999999 0.026518238436213856 0.0
2.799999999999998 0.019087176276917885 0.0
2.599999999999998 0.006934201713061954 0.0
2.399999999999999 -0.00693420171306218 0.0
2.199999999999999 -0.01908717627691805 0.0
1.999999999999998 -0.02651823843621392 0.0
1.799999999999999 -0.02738904269238231 0.0
1.6 -0.021484163706468516 0.0
1.4 -0.010264389649886267 0.0
1.199999999999999 0.0034946572729317262 0.0
0.9999999999999982 0.016389172675354134 0.0
0.7999999999999989 0.025229225718678572 0.0
0.6000000000000014 0.027827905383870862 0.0
0.3999999999999986 0.023542333040350666 0.0
0.1999999999999993 0.0134327020302825 0.0
0.0 0.1999999999995579 0.0
0.0 0.3999999999989749 0.0
0.0 0.5999999999989468 0.0
0.0 0.7999999999994734 0.0
0.6587231120737272 0.5509087065251689 0.0
9.34127675401791 0.5396922969833067 0.0
8.741870587282094 0.5661311360430951 0.0
1.258127624158109 0.5659745116254462 0.0
8.163592225460953 0.576756725674535 0.0
1.8363919682551242 0.5649899129300646 0.0
2.429568425222955 0.5947732434611713 0.0
7.570328277492099 0.5967708369290903 0.0
3.029507058123584 0.6063300668158511 0.0
6.969904205544901 0.5921286388750109 0.0
3.6276486772712415 0.6009642392602743 0.0
6.36870809480331 0.5877729364123161 0.0
4.2285462154697155 0.5834506867028929 0.0
5.795540016687906 0.533000126496856 0.0
4.801943904427745 0.524099492680229 0.0
5.298760437298236 0.5240883830906587 0.0
9.677486878419824 0.6947719959928523 0.0
0.3225131013799189 0.705731486216247 0.0
4.529902039213211 0.3304358782668447 0.0
3.9179398119309683 0.3675914048520788 0.0
6.06847708544416 0.3412385519867982 0.0
3.3184839279461817 0.3806213745929817 0.0
6.68041566628435 0.3645390128656083 0.0
7.879707183952285 0.3711240941293977 0.0
2.120254816087078 0.36018413359420304 0.0
2.7192612518478545 0.3774385086332654 0.0
7.280515262448294 0.36926164930906313 0.0
9.03750176906268 0.66676244239319 0.0
0.9624978011579214 0.6764570967144268 0.0
1.5315729924215076 0.35429367757985186 0.0
8.468421903485797 0.36350537850713266 0.0
8.458829891715817 0.6834465365845359 0.0
1.5411654767970357 0.6735552076697382 0.0
0.9791621918822538 0.3687144002541154 0.0
9.020837257401885 0.3600642054783522 0.0
4.526579826508321 0.6820717557566945 0.0
3.9205399760965958 0.6968435270340405 0.0
6.070193914088835 0.6930026232773241 0.0
2.1176455832506504 0.6840038964345982 0.0
7.882320650545726 0.6962509980029896 0.0
3.322454383385906 0.7099558885627499 0.0
6.676300079700513 0.6931360771473789 0.0
2.7245416826552407 0.7063581240733394 0.0
7.275246957320768 0.6974979104596046 0.0
0.3328043277430245 0.30878747234880183 0.0
9.667195646658476 0.29795438927225143 0.0
5.581503866483505 0.3291482899682443 0.0
5.016936829192535 0.3210441604004509 0.0
5.509579490491039 0.7015018835767723 0.0
5.087170096993365 0.6955307379413392 0.0
0.6618060394696779 0.7432088477150476 0.0
9.338193868174931 0.7268499332074344 0.0
8.747959835049905 0.7389656074801269 0.0
1.2520389101423919 0.7389615036546346 0.0
8.67074161073955 0.2765035889038874 0.0
1.3292563371273964 0.27351471110230025 0.0
0.6803125951405296 0.24488168203633373 0.0
9.31968729630391 0.22801052811529182 0.0
8.170486926254133 0.7517964515800352 0.0
1.8295019322419082 0.7350079055984966 0.0
8.082812706051344 0.2847643371623711 0.0
1.9171702881981927 0.26861222276472413 0.0
7.485854701861708 0.28350204610879776 0.0
2.5140379034372313 0.28443655632247605 0.0
6.885843908220299 0.2762856166308339 0.0
3.1136215471193 0.29433936526219545 0.0
6.285471490615292 0.26950893334184844 0.0
3.712998512036237 0.2854113483103044 0.0
2.4219302457785745 0.8083599897763628 0.0
7.5780104467187215 0.813341363145112 0.0
3.0210204603474637 0.826352337872685 0.0
6.978628302705968 0.8000294917413473 0.0
3.617856104264988 0.8174936465266687 0.0
6.379907784230134 0.8046536039241282 0.0
4.216375275078511 0.796835373273274 0.0
5.793789998129397 0.8560203783896237 0.0
4.802322022422892 0.8357773183336361 0.0
5.299548144971565 0.19514819308191106 0.0
4.313243459435996 0.2617844810799 0.0
4.742806250828721 0.23106665384399755 0.0
5.856037399080041 0.2474682031407454 0.0
5.2983266369957 0.7236321114187654 0.0
0.19481574993250247 0.5045656029482035 0.0
9.805184236924141 0.4993413763212353 0.0
9.487003209893798 0.14940515705886595 0.0
0.512996753300592 0.17477473404166216 0.0
9.568987438395755 0.5069356071415593 0.0
0.43101251363227644 0.5166440464910311 0.0
9.509176512153479 0.8234802562618119 0.0
0.49082345990294807 0.8487159181882392 0.0
9.823694641445014 0.8224314669822217 0.0
0.1763053534373756 0.8328577118539798 0.0
7.6911280983138965 0.19758230290654974 0.0
2.3088298117976724 0.1856597542802067 0.0
8.876852236777223 0.1868584783580878 0.0
1.1231470845856362 0.1954532904518892 0.0
7.091364029445495 0.18261455991870937 0.0
2.908413124915841 0.20554900244374777 0.0
6.4915000863363765 0.18158198311582735 0.0
3.5079726573639674 0.2016843983184744 0.0
1.7129695143689168 0.17527977708373868 0.0
8.287024311598888 0.19912250847100235 0.0
4.107627037492063 0.17874228047202315 0.0
8.577849191034058 0.8334339369993816 0.0
1.422148992079126 0.822030267285928 0.0
8.923511592243063 0.8198200769036705 0.0
1.0764879664461102 0.8314842435768885 0.0
0.8417609508491407 0.8356114841138813 0.0
9.158238892452715 0.8132378562427034 0.0
8.346211618030967 0.8399197547159748 0.0
1.6537840145415004 0.8175715112425768 0.0
5.592669534763215 0.5102176547705444 0.0
5.0049229144743395 0.5037919427494609 0.0
7.789841068797646 0.847545362903521 0.0
2.2101320041419705 0.8291226839097253 0.0
7.777713126610538 0.5536266527013596 0.0
2.2222299537764445 0.5462081259393684 0.0
2.8147777193239016 0.8538177381145998 0.0
7.185055469029519 0.833047660474352 0.0
3.411517945789442 0.8546410491653447 0.0
6.58746009842904 0.8308905960249239 0.0
4.008707409639329 0.8330477451023661 0.0
5.985094331741566 0.8517484454953663 0.0
4.6110192426276475 0.8306935905934061 0.0
7.176079399195888 0.5531801203427048 0.0
2.82358435678633 0.5627882108843895 0.0
6.576036393808535 0.548911070721407 0.0
3.4220327601154197 0.5631200909595282 0.0
5.978571104244712 0.5345986984008236 0.0
4.0214386152980985 0.5494319099990039 0.0
4.618904769843141 0.525307407563243 0.0
8.549555375481145 0.5418440136763779 0.0
[...]
POINT_DATA 386
VECTORS vector double
1.0 0.0 0.0
0.0 0.0 0.0
0.0 0.0 0.0
0.0 0.0 0.0
0.0 0.0 0.0
1.0 0.0 0.0
0.0 0.0 0.0
0.0 0.0 0.0
0.0 0.0 0.0
0.0 0.0 0.0
0.0 0.0 0.0
0.0 0.0 0.0
0.0 0.0 0.0
0.0 0.0 0.0
0.0 0.0 0.0
0.0 0.0 0.0
0.0 0.0 0.0
0.0 0.0 0.0
0.0 0.0 0.0
0.0 0.0 0.0
0.0 0.0 0.0
0.0 0.0 0.0
0.0 0.0 0.0
0.0 0.0 0.0
0.0 0.0 0.0
0.0 0.0 0.0
0.0 0.0 0.0
0.0 0.0 0.0
0.0 0.0 0.0
0.0 0.0 0.0
0.0 0.0 0.0
0.0 0.0 0.0
0.0 0.0 0.0
0.0 0.0 0.0
0.0 0.0 0.0
0.0 0.0 0.0
0.0 0.0 0.0
0.0 0.0 0.0
0.0 0.0 0.0
0.0 0.0 0.0
0.0 0.0 0.0
0.0 0.0 0.0
0.0 0.0 0.0
0.0 0.0 0.0
0.0 0.0 0.0
0.0 0.0 0.0
0.0 0.0 0.0
0.0 0.0 0.0
0.0 0.0 0.0
0.0 0.0 0.0
0.0 0.0 0.0
0.0 0.0 0.0
0.0 0.0 0.0
0.0 0.0 0.0
0.902785137079 0.0884958703459 0.0
1.34425168753 0.00338341935121 0.0
1.38416018009 -0.00197863810007 0.0
1.06659572751 -0.0850120118782 0.0
0.0 0.0 0.0
0.0 0.0 0.0
0.0 0.0 0.0
0.0 0.0 0.0
0.0 0.0 0.0
0.0 0.0 0.0
0.0 0.0 0.0
0.0 0.0 0.0
0.0 0.0 0.0
0.0 0.0 0.0
0.0 0.0 0.0
0.0 0.0 0.0
0.0 0.0 0.0
0.0 0.0 0.0
0.0 0.0 0.0
0.0 0.0 0.0
0.0 0.0 0.0
0.0 0.0 0.0
0.0 0.0 0.0
0.0 0.0 0.0
0.0 0.0 0.0
0.0 0.0 0.0
0.0 0.0 0.0
0.0 0.0 0.0
0.0 0.0 0.0
0.0 0.0 0.0
0.0 0.0 0.0
0.0 0.0 0.0
0.0 0.0 0.0
0.0 0.0 0.0
0.0 0.0 0.0
0.0 0.0 0.0
0.0 0.0 0.0
0.0 0.0 0.0
0.0 0.0 0.0
0.0 0.0 0.0
0.0 0.0 0.0
0.0 0.0 0.0
0.0 0.0 0.0
0.0 0.0 0.0
0.0 0.0 0.0
0.0 0.0 0.0
0.0 0.0 0.0
0.0 0.0 0.0
0.0 0.0 0.0
0.0 0.0 0.0
0.0 0.0 0.0
0.0 0.0 0.0
0.0 0.0 0.0
1.0 0.0 0.0
1.0 0.0 0.0
1.0 0.0 0.0
1.0 0.0 0.0
1.23340727928 -0.0366053098429 0.0
1.38993897482 -0.0433581359598 0.0
1.38904961687 -0.0544425015038 0.0
1.33610876222 -0.0215459250559 0.0
1.39134195469 0.00483110078229 0.0
1.38005081983 -0.00699514950198 0.0
1.36686569308 0.0370391854649 0.0
1.37713592618 0.039279014298 0.0
1.37040602811 0.0302468788284 0.0
1.37217150506 -0.00914212576155 0.0
1.3758497529 -0.0325025805011 0.0
1.36501341992 -0.0454622507976 0.0
1.37628952975 -0.0377734649022 0.0
1.35786965277 -0.000556416295418 0.0
1.3856360494 0.0363971183273 0.0
1.39847187121 0.0372715307842 0.0
1.22741620928 -0.000431867692256 0.0
1.12307264309 -0.117691579579 0.0
1.2633832422 0.00702235143062 0.0
1.30446321416 -0.0403099743621 0.0
1.22625116313 -0.0246706139531 0.0
1.30147778832 0.00427665259686 0.0
1.2993561683 -0.0328442886275 0.0
1.29164295078 0.0301948026195 0.0
1.33135948518 0.0209964569029 0.0
1.31629701194 0.0469229194176 0.0
1.31324678978 0.0211874336342 0.0
1.30365414137 -0.0515876106255 0.0
1.24724947512 -0.0275350231947 0.0
1.33402291089 -0.00308133339142 0.0
1.28263346569 -0.0286470266928 0.0
1.33471493905 -0.0246889431557 0.0
1.26962695125 -0.0191227553241 0.0
1.32503456078 0.0129750940074 0.0
1.32681480378 -0.0611818848579 0.0
1.27550487535 -0.000299681729829 0.0
1.27097635942 -0.0370301576223 0.0
1.28856551521 -0.0209263257853 0.0
1.25892164585 0.0224316547579 0.0
1.30213724038 0.024679650478 0.0
1.26673142793 0.00795462674946 0.0
1.26555840659 -0.0347605884627 0.0
1.24437343686 0.0492514336023 0.0
1.25747009065 0.0236401777602 0.0
1.13688968021 0.0896063436398 0.0
1.29765120424 -0.0124360587249 0.0
1.20093315033 0.0195047250836 0.0
1.21916438224 0.0334119618091 0.0
1.24380182558 0.045974512187 0.0
1.24046926039 0.0230591914692 0.0
1.16364101748 -0.0623385514381 0.0
1.17808729162 -0.0325076406558 0.0
1.2135870112 -0.0461391675547 0.0
1.15518136317 -0.030061669149 0.0
1.14763088315 -0.0333499493848 0.0
1.20613056598 -0.0117806499192 0.0
1.19785513566 0.03424957129 0.0
1.14923895478 -0.0245618464547 0.0
1.22775263649 0.00123238051636 0.0
1.16715746101 -0.010570876573 0.0
1.13892627168 0.0209539428848 0.0
1.19947071577 -0.00914729530449 0.0
1.16489874956 0.0420328148747 0.0
1.19691175416 0.0291037255386 0.0
1.16936844825 -0.00188135307552 0.0
1.16550430397 0.0130943165329 0.0
1.13110432908 -0.0223245185129 0.0
1.15084918705 -0.0397883082089 0.0
0.984381463283 0.0331225205859 0.0
0.998846416005 0.0390482466131 0.0
0.959520814327 0.0213583274138 0.0
1.07187451355 -0.00416682295639 0.0
1.03569351333 -0.0331874697697 0.0
1.09835235535 -0.0501815685302 0.0
1.09321932437 -0.0312028988305 0.0
0.925308460755 -0.00306854263349 0.0
0.939035142824 0.0328111104928 0.0
0.981465009864 0.0290294688771 0.0
1.15442687921 -0.0261177668823 0.0
0.983022474635 -0.0101741646055 0.0
1.00165647092 0.0149658601193 0.0
1.14850529924 0.0406114823519 0.0
1.0006492152 -0.0123665881402 0.0
1.4089522979 -0.0119600155501 0.0
0.874518043616 -0.00249639806376 0.0
1.14498796875 0.0702987812302 0.0
1.41197982555 -0.0180265803077 0.0
1.12829179022 -0.0247484791887 0.0
0.880946331284 -0.0117974225615 0.0
0.985707403264 -0.0700037676703 0.0
0.799213500781 -0.0501017208312 0.0
1.13691281376 -0.15573115145 0.0
0.964880890495 0.0287554940074 0.0
0.956899228645 0.0321809345627 0.0
0.917740338358 -0.0539965449389 0.0
1.04822261892 0.00232890906439 0.0
0.916695661603 0.00055667972608 0.0
0.999078166431 0.0375141945703 0.0
0.887536917371 -0.0399133864991 0.0
0.940475799265 -0.0109518941104 0.0
0.925398216129 -0.00107230185758 0.0
0.948119427595 -0.0168244090637 0.0
0.880803071796 -0.0183820186945 0.0
0.943368877636 -0.039723867856 0.0
0.93909954509 -0.0242090519006 0.0
0.975709121524 -0.0351884010213 0.0
0.89880555608 -0.0417830292602 0.0
0.900603436544 -0.0247793615011 0.0
0.972537334883 -0.0462282491494 0.0
0.9200826958 9.92391206805e-05 0.0
0.958074631044 -0.0321277309799 0.0
1.35922649797 0.00408252407583 0.0
1.37687746054 0.059752701506 0.0
0.867935883898 0.019887944236 0.0
0.901300779034 0.0293208695913 0.0
1.41489304495 0.0416979245806 0.0
1.41365067165 0.0246989525088 0.0
0.837743684827 0.0347603718302 0.0
0.937808335378 0.0177356782453 0.0
0.895141757281 -0.0081242733942 0.0
1.00003732277 -0.0426440614414 0.0
0.985735607972 -0.0353916195145 0.0
0.953866664101 -0.0131069486215 0.0
0.959722325523 0.0121769453887 0.0
1.41421002302 0.0187557411902 0.0
1.40667916311 0.0416892681351 0.0
1.40432835865 -0.0385628397672 0.0
1.40812008705 -0.0135493735966 0.0
1.37320906596 -0.017716627307 0.0
1.413866619 -0.0500356702461 0.0
1.40798931427 0.0139550348699 0.0
1.40685789704 -0.0390674547896 0.0
1.38524584267 -0.0115445422024 0.0
1.3363689024 -0.0141333410278 0.0
1.3070297538 -0.0158640315386 0.0
1.41077118115 -0.0617918394505 0.0
1.40479774591 -0.0630542714475 0.0
1.40605175888 -0.0147228517538 0.0
1.40477530414 -0.0123922657366 0.0
1.42024396505 -0.0201654774042 0.0
1.40723004744 0.0165579058204 0.0
1.40674627343 0.0240725085959 0.0
1.39997406889 -0.0351783164444 0.0
1.37298179113 -0.0324985786712 0.0
1.39604301725 0.0243735644616 0.0
1.39463067329 -0.0351037804578 0.0
1.39867008254 0.0591081434293 0.0
1.39718447446 0.0271290502163 0.0
0.977492511505 -0.0142450087722 0.0
0.956425658083 -0.0393858819348 0.0
0.98123632695 -0.026426276482 0.0
0.948611360038 0.022667979893 0.0
0.898318580839 -0.00376046566448 0.0
0.859698060122 0.00511100300003 0.0
0.994016195326 -0.0224933563825 0.0
0.846841930161 0.0360626897665 0.0
0.904692481487 0.0341409344608 0.0
0.920898385397 0.0852345088664 0.0
0.969449078236 -0.0431027006951 0.0
1.14891389206 0.189266058453 0.0
0.93995824785 -0.00701822216853 0.0
0.90131186324 -0.0234301383249 0.0
1.09169661896 -0.00505416267923 0.0
1.29058088753 -0.039831659647 0.0
1.19999257299 -0.101602422594 0.0
0.848570837146 -0.0229596020164 0.0
0.841224331059 -0.0181712120207 0.0
0.880069657496 0.0318517626338 0.0
0.831172882795 -0.000587544222964 0.0
0.792488523743 -0.00599453266397 0.0
0.755428117848 -0.0238097267282 0.0
0.840987640868 0.0342574387687 0.0
0.905197833317 0.0280783864218 0.0
0.792995513403 -0.0107400694478 0.0
0.879238106137 -0.00708524545596 0.0
1.33232231039 -0.0558930097823 0.0
1.34423102611 0.00291532481569 0.0
0.793673540832 -0.036933042192 0.0
1.32729872282 0.000988307539245 0.0
1.3607096016 -0.00905627324454 0.0
0.930438535574 0.0329094414138 0.0
0.948112102388 0.186867728295 0.0
1.36825578469 0.0258207646619 0.0
1.34545033785 0.0468324153676 0.0
0.914686126688 -0.0188468417428 0.0
0.958716721985 0.0198354267341 0.0
1.35453774991 0.0310730327999 0.0
1.3492034211 0.00893470973428 0.0
1.32462946166 -0.0318186301658 0.0
1.34364646508 -0.0263436468157 0.0
0.926137755054 0.0658382426102 0.0
1.34368426447 -0.0466026372072 0.0
1.26156782821 0.020643936921 0.0
1.29039945775 0.00938818169964 0.0
1.31102115411 -0.0335594523014 0.0
1.25528007684 -0.0322653061516 0.0
1.28259311605 0.0276506379819 0.0
1.28236234184 -0.0409145019209 0.0
1.29843568652 -0.00886695740267 0.0
1.28669020242 0.0348064417008 0.0
1.25951046282 0.0322314389834 0.0
1.2858437347 -0.0428285561239 0.0
1.28725253295 -0.017179847505 0.0
1.27434193825 0.0389475429459 0.0
1.2696173293 0.00448023984811 0.0
1.30434115447 -0.0646770007802 0.0
1.2385763018 -0.0206529464424 0.0
1.28160335469 -0.0213029217081 0.0
1.27972029826 -0.00471855836238 0.0
1.31528693447 0.0234322229198 0.0
1.27556792375 -0.00844215883265 0.0
1.31931098664 -0.015087601621 0.0
1.223284234 -0.0495814277101 0.0
1.29636336336 -0.0422812745651 0.0
1.29150894318 -0.0368802155839 0.0
1.29071573691 -0.0446231517407 0.0
1.28492030613 0.0199217361384 0.0
1.27423904441 -0.0222653592898 0.0
1.24136000605 0.048541081592 0.0
1.33524962767 -0.0192699361994 0.0
1.25622847888 0.041843730133 0.0
1.28017030226 0.0351077904256 0.0
1.26788843563 0.0189518622317 0.0
1.27576539492 0.0442194741524 0.0
0.945150128658 -0.11311836763 0.0
1.30891039481 -0.00676716261592 0.0
1.29811393112 0.0588651776052 0.0
1.40115410408 0.0419092945115 0.0
1.39292240031 0.0390628913806 0.0
1.31299859752 0.00213237200368 0.0
1.01681169613 0.0841322461552 0.0
0.760468105739 -0.00264309591243 0.0
1.16677573917 0.149852389645 0.0
1.02591992617 -0.0943577667971 0.0
1.26095610682 -0.00424905091205 0.0
1.31956243245 -0.0460995218236 0.0
1.28278870519 0.0246151325011 0.0
1.36790129087 -0.0566432875877 0.0
1.36774501522 0.00830384314435 0.0
0.880666742299 0.0437648530251 0.0
0.740499653313 0.0391625480731 0.0
1.07830659035 -0.126052989036 0.0
0.827205014691 -0.0613711414126 0.0
1.37034432839 0.00767093884349 0.0
1.38225015232 0.0165534056794 0.0
0.594221915305 0.0160344408627 0.0
0.661364408234 -0.0146974402932 0.0
0.625126646018 -0.0466987428501 0.0
1.39299549862 0.0575367971917 0.0
1.38102345228 0.0264974246002 0.0
1.36060660451 0.0113538545175 0.0
1.3227312636 -0.00178320528249 0.0
1.3863904111 0.0367893993803 0.0
1.37262722795 -0.0295135450737 0.0
1.37813480923 -0.0244943354354 0.0
1.35035622082 -0.0381926945969 0.0
0.758779306187 0.0196271501984 0.0
0.640349080065 -0.0188937068847 0.0
1.3782388253 -0.0194129331262 0.0
0.730764579609 0.0390601329657 0.0
0.715537751336 0.0206614650147 0.0
0.651355763097 0.0120117661486 0.0
0.735536748948 0.001530378322 0.0
0.730126877363 -0.0199073858774 0.0
0.769654398433 -0.0354762058005 0.0
0.779377753753 -0.0376385193739 0.0
0.743419394423 -0.0345345727738 0.0
0.749047305718 0.0103105038372 0.0
0.681333082682 -0.0525283808773 0.0
0.698491797708 0.00678080883979 0.0
0.789526521913 -0.0149732008739 0.0
0.543225126308 0.0501923640213 0.0
1.17608482856 -0.0141767209618 0.0
0.903199610615 0.00113060595387 0.0
0.617645086616 0.0167345369867 0.0

SCALARS scalar1 double
LOOKUP_TABLE default
3.84648511263
7.30552223618
5.65638467311
5.32773166167
-6.64550275947
-2.46004648488
9.87155812089
8.42296186786
6.18876069578
5.60291487964
5.56313725563
6.07360481036
6.63093773247
6.60908892514
7.48752011936
6.7387477842
6.23388323562
5.94007178086
5.72046209028
5.52100158824
5.56823071128
5.94130595657
6.22331637509
6.63360099042
7.37685861923
7.37770749387
7.23905719422
7.55392080062
7.35891884592
6.74638725356
8.15926711634
4.50126706598
7.47670227749
6.09380561632
6.56402294548
6.9068474423
6.89295137497
7.30682851637
7.88231577719
7.45386455517
7.15525352218
6.90274136387
6.23572614234
5.80137874522
5.55151240546
5.70651811231
5.78750122229
6.48114427105
6.8431071358
6.67113604219
7.09435527972
6.87791806331
6.96081967006
6.01236016998
3.36409717352
1.03057033374
-0.533405096189
-2.75175324223
-6.50796114866
-6.07290331189
-5.3144456421
-4.90835881766
-5.40240932332
-5.41335253411
-6.32775982948
-6.29858363657
-6.47461505341
-7.02915131485
-6.41394725185
-6.00463648611
-6.01134958139
-5.40941596813
-4.90489261024
-5.10877422245
-5.19170034613
-5.04343887368
-5.72727486119
-7.5591346049
-5.59781875566
-6.85347162308
-6.65453233851
-6.36978342667
-6.17638115012
-4.7068145892
-6.40928102341
-4.95448382837
-4.67399444038
-5.23074835652
-5.48950124949
-5.54786644926
-6.18810386973
-6.89734481048
-6.52931470621
-6.53916317782
-6.57576901528
-5.74371607634
-5.56521384262
-5.38211040254
-5.06521135609
-5.5269099119
-6.24042925411
-6.26790306589
-7.19360299748
-8.03383633924
-9.25702514954
-11.4643093065
-11.9978262558
2.83105488392
-0.100722220153
-0.0537700097082
-2.92638461416
0.131948839898
0.378103732118
0.240864062567
0.48138453479
0.141625686892
0.561453206358
0.697156388448
0.479133157735
0.446660162104
0.618948489143
0.379564310512
0.31633935434
0.543793822177
-0.1360709458
0.0509949490246
-0.162602405292
2.1272007955
-0.862169672875
-1.23505429007
-1.2248767307
-1.42600834026
-1.32745548254
-1.01927406423
-1.32063805993
-0.949478756134
-1.09400329822
-0.995497075588
1.37585653794
0.946934535916
-0.955365266575
-1.4354875467
1.08252456433
1.43561340323
-0.251558967572
-1.05243563718
1.68120026046
1.4114487087
0.796777224912
1.78150006227
1.34854932521
1.29513087562
1.52054292639
1.67977685041
1.80541542048
0.875242125422
-1.35553585107
-1.56204613345
-1.46801271504
0.913385195067
1.23103438237
1.27129631716
2.32484509296
1.96770470942
1.9134751436
-2.32237307195
-2.00202857844
-1.86675043939
-2.37460466727
1.97140915441
2.32105526739
-2.34163000153
-1.98329842491
-1.97264227364
-1.92201042058
-1.88472490002
-2.21151409066
-2.26200557013
-2.30301468319
3.29862116246
3.30777409497
3.36295809226
2.95366346919
2.97996708666
2.63524463042
2.77397175808
3.8485075592
3.7008917128
-2.89708025099
-2.13332479233
-2.44105797475
-2.38357173649
1.3747612898
-0.0138716437058
0.126427528167
-3.87911413771
-2.68254839396
0.192293731142
0.0476124456754
3.52461225504
3.38501337446
3.77496435288
-0.480233235204
-3.02743529941
-3.23347694018
-3.36366405738
-3.14295697068
-3.19019999291
-3.0384581281
-3.40349598236
-3.33697320919
-3.57333270498
-3.22065626463
-3.49809754167
3.43973714502
3.20206520277
3.27235115948
3.21967198894
3.35448802022
3.17459741909
3.70084860964
3.16184567702
-0.258668561767
-0.176443015496
3.83329861004
3.57117532201
0.0744599605867
0.337622679138
3.93419815582
3.60813024062
3.7571105157
3.26087702382
3.30589986695
3.64979740108
3.54559655324
0.286878601442
0.237239775744
0.144252036128
0.095332972865
-0.0907363920708
0.164811098068
0.132860693669
-0.0189836383747
0.346967542214
0.303281609156
0.253035848739
0.0832652090961
0.119909716045
0.260795841567
0.295976723365
-0.0934857515955
0.372426870932
-0.00778518639768
0.182495455296
0.00786635296296
0.162311192289
0.256829900699
0.367412031749
0.263251409794
3.34745208863
3.4523818712
3.31379341486
3.36726836343
3.81356079296
3.88106156597
3.28922075963
3.89196800344
3.72779761684
-3.11118326073
-2.82483362003
0.150934897288
-3.85842324974
-3.44170168466
-2.97175536391
1.67112384624
-0.302262150301
-4.04771392609
-3.74921661694
-3.42573299167
-3.96469872997
-3.86369791776
-4.18691467713
-3.54041450717
-3.49648504615
-3.80611448894
-3.50389524508
-0.987807806882
-0.292180869068
-3.82747022328
-1.17346127206
-0.645297378583
-3.08834870542
3.81755094595
-0.638843083571
-0.914804114079
4.00320405074
-2.94026398772
-0.847999643034
-0.723845284496
-0.89394997064
-0.972662382872
3.83580189255
-0.822226729227
-1.25324004858
-1.04701142221
0.994503096364
1.32565109264
1.54626687931
1.44367197152
0.756202062651
1.63394675552
1.80418010042
1.47087854569
1.19487156353
1.49389415984
1.85055248239
1.25532781391
0.960049783124
1.71114554434
1.64439567389
1.08306428636
1.38564796879
1.08257829275
0.803097282208
1.31602862995
1.49923466754
0.949702448014
1.56486558188
1.61979240193
0.39853539586
-0.849690960497
1.88943021674
1.70532542732
-0.97892519873
-1.0277326482
3.6836056121
0.748338282974
1.30797042235
0.145339721102
0.0825944483555
-1.2260836991
1.22125388743
-4.62385427139
-3.22413832913
-1.44131755461
1.97470820743
-0.840190994379
0.113984353599
-0.800929798634
-0.220934031984
-3.67854754162
4.16423785137
3.84476932028
-4.04626931808
-0.838289030146
-0.397043886223
-4.43870184109
-4.14087844419
-4.30458719796
-0.410046868336
-0.548792200785
-0.749914052489
-0.946701158563
-0.609665671302
-0.472652904445
-0.650964356985
-0.723100346022
-3.83728959806
-4.31298512642
-0.554471606275
-4.10834420775
-4.01985644381
-4.54493319502
-3.87270141499
4.49755000012
4.001436068
4.31659004626
4.12712356729
-4.46873258594
-4.27231897753
4.79394854287
4.03422384854
4.5557742299
1.1904849642
-4.1579114981
-4.58898333523

SCALARS scalar2 double
LOOKUP_TABLE default
3.84648511263
7.30552223618
5.65638467311
5.32773166167
-6.64550275947
-2.46004648488
9.87155812089
8.42296186786
6.18876069578
5.60291487964
5.56313725563
6.07360481036
6.63093773247
6.60908892514
7.48752011936
6.7387477842
6.23388323562
5.94007178086
5.72046209028
5.52100158824
5.56823071128
5.94130595657
6.22331637509
6.63360099042
7.37685861923
7.37770749387
7.23905719422
7.55392080062
7.35891884592
6.74638725356
8.15926711634
4.50126706598
7.47670227749
6.09380561632
6.56402294548
6.9068474423
6.89295137497
7.30682851637
7.88231577719
7.45386455517
7.15525352218
6.90274136387
6.23572614234
5.80137874522
5.55151240546
5.70651811231
5.78750122229
6.48114427105
6.8431071358
6.67113604219
7.09435527972
6.87791806331
6.96081967006
6.01236016998
3.36409717352
1.03057033374
-0.533405096189
-2.75175324223
-6.50796114866
-6.07290331189
-5.3144456421
-4.90835881766
-5.40240932332
-5.41335253411
-6.32775982948
-6.29858363657
-6.47461505341
-7.02915131485
-6.41394725185
-6.00463648611
-6.01134958139
-5.40941596813
-4.90489261024
-5.10877422245
-5.19170034613
-5.04343887368
-5.72727486119
-7.5591346049
-5.59781875566
-6.85347162308
-6.65453233851
-6.36978342667
-6.17638115012
-4.7068145892
-6.40928102341
-4.95448382837
-4.67399444038
-5.23074835652
-5.48950124949
-5.54786644926
-6.18810386973
-6.89734481048
-6.52931470621
-6.53916317782
-6.57576901528
-5.74371607634
-5.56521384262
-5.38211040254
-5.06521135609
-5.5269099119
-6.24042925411
-6.26790306589
-7.19360299748
-8.03383633924
-9.25702514954
-11.4643093065
-11.9978262558
2.83105488392
-0.100722220153
-0.0537700097082
-2.92638461416
0.131948839898
0.378103732118
0.240864062567
0.48138453479
0.141625686892
0.561453206358
0.697156388448
0.479133157735
0.446660162104
0.618948489143
0.379564310512
0.31633935434
0.543793822177
-0.1360709458
0.0509949490246
-0.162602405292
2.1272007955
-0.862169672875
-1.23505429007
-1.2248767307
-1.42600834026
-1.32745548254
-1.01927406423
-1.32063805993
-0.949478756134
-1.09400329822
-0.995497075588
1.37585653794
0.946934535916
-0.955365266575
-1.4354875467
1.08252456433
1.43561340323
-0.251558967572
-1.05243563718
1.68120026046
1.4114487087
0.796777224912
1.78150006227
1.34854932521
1.29513087562
1.52054292639
1.67977685041
1.80541542048
0.875242125422
-1.35553585107
-1.56204613345
-1.46801271504
0.913385195067
1.23103438237
1.27129631716
2.32484509296
1.96770470942
1.9134751436
-2.32237307195
-2.00202857844
-1.86675043939
-2.37460466727
1.97140915441
2.32105526739
-2.34163000153
-1.98329842491
-1.97264227364
-1.92201042058
-1.88472490002
-2.21151409066
-2.26200557013
-2.30301468319
3.29862116246
3.30777409497
3.36295809226
2.95366346919
2.97996708666
2.63524463042
2.77397175808
3.8485075592
3.7008917128
-2.89708025099
-2.13332479233
-2.44105797475
-2.38357173649
1.3747612898
-0.0138716437058
0.126427528167
-3.87911413771
-2.68254839396
0.192293731142
0.0476124456754
3.52461225504
3.38501337446
3.77496435288
-0.480233235204
-3.02743529941
-3.23347694018
-3.36366405738
-3.14295697068
-3.19019999291
-3.0384581281
-3.40349598236
-3.33697320919
-3.57333270498
-3.22065626463
-3.49809754167
3.43973714502
3.20206520277
3.27235115948
3.21967198894
3.35448802022