# vtk DataFile Version 2.0
2D Simulation Python
ASCII
DATASET UNSTRUCTURED_GRID
FIELD FieldData 1
NODES 1 2 int
386 659

POINTS 386 double
0.0 1.0 0.0
1.725 0.9613551438222594 0.0
8.275 1.0386448561777404 0.0
10.0 1.0 0.0
10.0 -4.072058189457631e-17 0.0
0.0 0.0 0.0
0.1916666666663293 1.0192562502027478 0.0
0.3833333333324708 1.0341299157044972 0.0
0.574999999998553 1.041235856709664 0.0
0.7666666666645966 1.0389568119130994 0.0
0.9583333333312576 1.0278114755959964 0.0
1.149999999998384 1.010336446520602 0.0
1.341666666665662 0.9905089162101546 0.0
1.533333333332819 0.9728414886287334 0.0
1.92348484848444 0.9587446053456941 0.0
2.121969696968978 0.966189257760858 0.0
2.320454545453434 0.9818746134889865 0.0
2.518939393937826 1.0019776756257301 0.0
2.717424242422235 1.021598718232538 0.0
2.915909090906411 1.0359554981492192 0.0
3.1143939393908 1.041548832690431 0.0
3.312878787875129 1.0370154565909877 0.0
3.511363636359531 1.023460291096841 0.0
3.709848484843827 1.0041871411468373 0.0
3.90833333332816 0.9838934579096129 0.0
4.106818181812215 0.9675254274671824 0.0
4.305303030296804 0.9590724352562153 0.0
4.503787878781365 0.9605947318451991 0.0
4.702272727265711 0.9717212873863994 0.0
4.900757575750005 0.989740222842617 0.0
5.099242424235156 1.0102597771558808 0.0
5.297727272720327 1.0282787126125315 0.0
5.496212121205663 1.0394052681543697 0.0
5.694696969690998 1.0409275647440068 0.0
5.89318181817668 1.0324745725335416 0.0
6.09166666666213 1.0161065420913218 0.0
6.290151515147423 0.9958128588540722 0.0
6.488636363633031 0.9765397089038004 0.0
6.687121212118713 0.962984543409305 0.0
6.885606060604342 0.958451167309555 0.0
7.084090909089381 0.9640445018505605 0.0
7.282575757574369 0.9784012817671588 0.0
7.481060606059355 0.9980223243739762 0.0
7.679545454544343 1.0181253865108044 0.0
7.878030303029329 1.0338107422390392 0.0
8.076515151514705 1.0412553946542953 0.0
8.46666666666447 1.0271585113714814 0.0
8.658333333329285 1.009491083790359 0.0
8.84999999999549 0.9896635534800188 0.0
9.041666666661694 0.9721885244045508 0.0
9.233333333327899 0.9610431880871744 0.0
9.42499999999549 0.9587641432902583 0.0
9.616666666663775 0.9658700842952793 0.0
9.808333333331985 0.9807437497970964 0.0
10.0 0.7999999999999998 0.0
10.0 0.6000000000013869 0.0
10.0 0.4000000000016644 0.0
10.0 0.2000000000008322 0.0
9.799999999999999 -0.020023416091205285 0.0
9.6 -0.03509330655604164 0.0
9.399999999999999 -0.04148158182856764 0.0
9.2 -0.03760786795427829 0.0
8.999999999999998 -0.024430469992515438 0.0
8.799999999999997 -0.005209300147826616 0.0
8.599999999999998 0.015300580956727398 0.0
8.399999999999997 0.032025302749691134 0.0
8.199999999999998 0.04082739250323535 0.0
7.999999999999997 0.039529330809024696 0.0
7.799999999999997 0.028452240787988713 0.0
7.599999999999998 0.010336446520437421 0.0
7.399999999999997 -0.010336446520438051 0.0
7.199999999999998 -0.028452240787989087 0.0
6.999999999999997 -0.0395293308090249 0.0
6.799999999999997 -0.04082739250323523 0.0
6.599999999999998 -0.03202530274969072 0.0
6.399999999999997 -0.01530058095672679 0.0
6.199999999999998 0.00520930014782712 0.0
5.999999999999997 0.02443046999251591 0.0
5.799999999999998 0.037607867954278486 0.0
5.599999999999998 0.04148158182856763 0.0
5.399999999999999 0.03509330655604155 0.0
5.199999999999998 0.020023416091204962 0.0
4.999999999999999 -1.680238544399429e-16 0.0
4.799999999999999 -0.02002341609120519 0.0
4.599999999999999 -0.03509330655604167 0.0
4.399999999999999 -0.04148158182856764 0.0
4.199999999999999 -0.03760786795427834 0.0
3.999999999999999 -0.024430469992515566 0.0
3.799999999999999 -0.00520930014782686 0.0
3.599999999999999 0.01530058095672724 0.0
3.399999999999998 0.032025302749690975 0.0
3.199999999999998 0.04082739250323534 0.0
2.999999999999999 0.039529330809024765 0.0
2.799999999999998 0.028452240787988827 0.0
2.599999999999998 0.010336446520437408 0.0
2.399999999999999 -0.010336446520437744 0.0
2.199999999999999 -0.028452240787989063 0.0
1.999999999999998 -0.03952933080902486 0.0
1.799999999999999 -0.04082739250323525 0.0
1.6 -0.03202530274969087 0.0
1.4 -0.015300580956727164 0.0
1.199999999999999 0.005209300147827081 0.0
0.9999999999999982 0.024430469992515857 0.0
0.7999999999999989 0.03760786795427841 0.0
0.6000000000000014 0.04148158182856764 0.0
0.3999999999999986 0.035093306556041516 0.0
0.1999999999999993 0.020023416091205004 0.0
0.0 0.1999999999995579 0.0
0.0 0.3999999999989749 0.0
0.0 0.5999999999989468 0.0
0.0 0.7999999999994734 0.0
0.6587709111953911 0.562997054919545 0.0
9.341228755473464 0.5283409447037091 0.0
8.74163603203576 0.566935160320883 0.0
1.2583611059886752 0.5667365427682961 0.0
8.163158633459783 0.5886512943218569 0.0
1.836823236925911 0.555295174183774 0.0
2.4300784160318294 0.5940280673560462 0.0
7.569823572953835 0.5999200559078349 0.0
3.030091830867693 0.6198666888900276 0.0
6.969370689373275 0.5810729350690904 0.0
3.6282634096398265 0.6061737419001703 0.0
6.368258221124163 0.5849836773616184 0.0
4.229072041156915 0.5727016293158254 0.0
5.795285135263208 0.5456219350675848 0.0
4.802275134984339 0.5195395355935708 0.0
5.298796129067038 0.5344193978948522 0.0
9.677479985575415 0.6844674297626119 0.0
0.3225199473635628 0.7163172276752349 0.0
4.530287298501621 0.3188101436738952 0.0
3.918478727602128 0.36313797453263014 0.0
6.068157277139762 0.3488400059577285 0.0
3.3190396166961404 0.39313042022724215 0.0
6.679949065868694 0.354286362506333 0.0
7.879284850809801 0.3818914743885129 0.0
2.120676661626223 0.3514765957195695 0.0
2.719760678559148 0.3855557655189221 0.0
7.280034815270212 0.36340428131353986 0.0
9.037390119511537 0.6587637793590105 0.0
0.962609009220249 0.6854834027932326 0.0
1.5318586340084765 0.3472695459667631 0.0
8.468134748224823 0.37215390476460175 0.0
8.45852840474455 0.6925106951671848 0.0
1.5414653365254647 0.6661760987178714 0.0
0.9792781876278516 0.3769244375507156 0.0
9.020720780775052 0.35288738853096435 0.0
4.5269632697490865 0.6697170310116967 0.0
3.921067043937568 0.6921194142538785 0.0
6.0698763258926105 0.6998940747141918 0.0
2.1180698458495457 0.6745386935122524 0.0
7.881895299133874 0.7077835138312752 0.0
3.3229978455181843 0.7237164454629231 0.0
6.675843220944149 0.6815172451220523 0.0
2.7250295707954106 0.7150744568180611 0.0
7.274776336892778 0.6909927273160942 0.0
0.33281302069184915 0.3192383101252538 0.0
9.66718690110125 0.2877918340830579 0.0
5.5813902215844 0.3448989805371543 0.0
5.017112434372226 0.322891059654835 0.0
5.5095020252001285 0.7166950014028157 0.0
5.087307274322286 0.6999560759350676 0.0
0.6618416926130928 0.7580951938542372 0.0
9.338158066575419 0.7125413474756976 0.0
8.74778032117912 0.739435935801325 0.0
1.2522176140215349 0.7396957450873738 0.0
8.670549129531954 0.2798136516733028 0.0
1.3294478866494823 0.27142206259328516 0.0
0.6803472123571562 0.2604459914763531 0.0
9.319652531267339 0.2129739234279479 0.0
8.170152603619732 0.7665894451590873 0.0
1.8298343787408078 0.7219090464035599 0.0
8.082481486233569 0.2993635761898955 0.0
1.917500084189841 0.25567383573371605 0.0
7.48545355704911 0.28363502599950413 0.0
2.5144462769797222 0.2862075965043129 0.0
6.885427803922706 0.2627291931460942 0.0
3.1140876925300605 0.30984904949665426 0.0
6.28513844064572 0.26962680973792486 0.0
3.713478229672965 0.2875017105305954 0.0
2.422233442208863 0.8064566239217819 0.0
7.577710090624298 0.8166755567928472 0.0
3.0213674218630024 0.8410124321515154 0.0
6.978311051220965 0.7868412247192531 0.0
3.618221547718862 0.823095926914388 0.0
6.379639339804596 0.8004306769685766 0.0
4.2166888878638265 0.7842537994819466 0.0
5.793669618773152 0.8704096495289309 0.0
4.802478768832277 0.8291240203886421 0.0
5.299566737000172 0.2059189137926869 0.0
4.313634911747353 0.24780261848268134 0.0
4.743053114987273 0.2233622899312312 0.0
5.855841579734348 0.2609018800336197 0.0
5.2983537294314065 0.7343638740236831 0.0
0.1948196283503772 0.5105301870613046 0.0
9.805180327074712 0.493575236635558 0.0
9.486990311193361 0.13504299886820115 0.0
0.5130095900091567 0.18941511567922992 0.0
9.568969472143907 0.4965912864143727 0.0
0.4310303873086178 0.5274511526166876 0.0
9.50916527990588 0.8093188179015017 0.0
0.4908346363162493 0.8631566920477843 0.0
9.823693708166768 0.8154558572104074 0.0
0.17630627238285004 0.8399380075600132 0.0
7.690861006480683 0.20431971706419122 0.0
2.309098475611476 0.1802056895659768 0.0
8.876754521887175 0.1830942309840106 0.0
1.1232443655688211 0.19994483285412573 0.0
7.091071764435196 0.1709362277325893 0.0
2.9087265179109667 0.21859516141273733 0.0
6.4912384664756795 0.17445263389343507 0.0
3.5083100235385816 0.21022759731976307 0.0
1.7131696352734267 0.16302202751061023 0.0
8.286823139081958 0.21244224752621219 0.0
4.107930961750826 0.16784861025765632 0.0
8.577689232735157 0.839564484319091 0.0
1.4223081411393592 0.8168523249391274 0.0
8.92342072184057 0.8142190040413846 0.0
1.0765784609378224 0.8378021418588706 0.0
0.8418089470216916 0.8482392157541774 0.0
9.158190707003984 0.8011451134675827 0.0
8.346005729879733 0.8524599739254617 0.0
1.65398873659365 0.8061272724136845 0.0
5.5925301843603075 0.5244059116792774 0.0
5.005134704983817 0.505457446734612 0.0
7.789584759547248 0.8575717391966483 0.0
2.210388262833985 0.8203330110288222 0.0
7.777214226324543 0.5618926382670093 0.0
2.222729300005691 0.540348832843647 0.0
2.815071877701515 0.8650279749730481 0.0
7.184775428826102 0.8231473980171977 0.0
3.411840973006138 0.8666872752323624 0.0
6.587197943886099 0.8200856968591188 0.0
4.009010554239639 0.8247675735227059 0.0
5.98493029079001 0.8614828776704813 0.0
4.6112207371305995 0.818646677908621 0.0
7.175529172286592 0.5454637773938856 0.0
2.82416398903651 0.5730795419783631 0.0
6.575523446393016 0.541035511957114 0.0
3.422667817142422 0.57349582405101 0.0
5.978233046389314 0.5436205518648938 0.0
4.022032228637596 0.5428240774155022 0.0
4.619319942725002 0.5162806705403746 0.0
8.549245450261308 0.5478855349749591 0.0
1.450749046227852 0.5318864910372897 0.0
[...]
POINT_DATA 386
VECTORS vector double
1.0 0.0 0.0
0.0 0.0 0.0
0.0 0.0 0.0
0.0 0.0 0.0
0.0 0.0 0.0
1.0 0.0 0.0
0.0 0.0 0.0
0.0 0.0 0.0
0.0 0.0 0.0
0.0 0.0 0.0
0.0 0.0 0.0
0.0 0.0 0.0
0.0 0.0 0.0
0.0 0.0 0.0
0.0 0.0 0.0
0.0 0.0 0.0
0.0 0.0 0.0
0.0 0.0 0.0
0.0 0.0 0.0
0.0 0.0 0.0
0.0 0.0 0.0
0.0 0.0 0.0
0.0 0.0 0.0
0.0 0.0 0.0
0.0 0.0 0.0
0.0 0.0 0.0
0.0 0.0 0.0
0.0 0.0 0.0
0.0 0.0 0.0
0.0 0.0 0.0
0.0 0.0 0.0
0.0 0.0 0.0
0.0 0.0 0.0
0.0 0.0 0.0
0.0 0.0 0.0
0.0 0.0 0.0
0.0 0.0 0.0
0.0 0.0 0.0
0.0 0.0 0.0
0.0 0.0 0.0
0.0 0.0 0.0
0.0 0.0 0.0
0.0 0.0 0.0
0.0 0.0 0.0
0.0 0.0 0.0
0.0 0.0 0.0
0.0 0.0 0.0
0.0 0.0 0.0
0.0 0.0 0.0
0.0 0.0 0.0
0.0 0.0 0.0
0.0 0.0 0.0
0.0 0.0 0.0
0.0 0.0 0.0
0.89635245832 0.0982426104203 0.0
1.36733981244 0.00179025845015 0.0
1.40203804986 -0.00360042838847 0.0
1.0538250392 -0.077129137432 0.0
0.0 0.0 0.0
0.0 0.0 0.0
0.0 0.0 0.0
0.0 0.0 0.0
0.0 0.0 0.0
0.0 0.0 0.0
0.0 0.0 0.0
0.0 0.0 0.0
0.0 0.0 0.0
0.0 0.0 0.0
0.0 0.0 0.0
0.0 0.0 0.0
0.0 0.0 0.0
0.0 0.0 0.0
0.0 0.0 0.0
0.0 0.0 0.0
0.0 0.0 0.0
0.0 0.0 0.0
0.0 0.0 0.0
0.0 0.0 0.0
0.0 0.0 0.0
0.0 0.0 0.0
0.0 0.0 0.0
0.0 0.0 0.0
0.0 0.0 0.0
0.0 0.0 0.0
0.0 0.0 0.0
0.0 0.0 0.0
0.0 0.0 0.0
0.0 0.0 0.0
0.0 0.0 0.0
0.0 0.0 0.0
0.0 0.0 0.0
0.0 0.0 0.0
0.0 0.0 0.0
0.0 0.0 0.0
0.0 0.0 0.0
0.0 0.0 0.0
0.0 0.0 0.0
0.0 0.0 0.0
0.0 0.0 0.0
0.0 0.0 0.0
0.0 0.0 0.0
0.0 0.0 0.0
0.0 0.0 0.0
0.0 0.0 0.0
0.0 0.0 0.0
0.0 0.0 0.0
0.0 0.0 0.0
1.0 0.0 0.0
1.0 0.0 0.0
1.0 0.0 0.0
1.0 0.0 0.0
1.23755653909 -0.0486756855966 0.0
1.43465657039 -0.0415402801771 0.0
1.42621515059 -0.0555957367521 0.0
1.3458240283 -0.0424106166779 0.0
1.41064288917 0.000329746347354 0.0
1.41735637138 0.00432572436746 0.0
1.39135043142 0.0442013115452 0.0
1.39054405932 0.0415014790819 0.0
1.37158526184 0.0183557241245 0.0
1.42223607609 0.00133883179312 0.0
1.39601761181 -0.0356335816483 0.0
1.40961040713 -0.0519962592173 0.0
1.43136032543 -0.0268342479032 0.0
1.39509544139 -0.00803208491928 0.0
1.41983325402 0.0374068354226 0.0
1.43093874513 0.044269481804 0.0
1.27973749224 0.0147561811341 0.0
1.10537287419 -0.0667130152653 0.0
1.23458354171 0.0171019059383 0.0
1.31098260519 -0.0415769051008 0.0
1.27106235832 -0.0435518543533 0.0
1.36635617142 -0.0133784772019 0.0
1.28678280756 -0.029574748927 0.0
1.34873070961 0.0346253675021 0.0
1.32118552863 0.0379271450815 0.0
1.36196492981 0.0488446167044 0.0
1.31169458048 0.0340724530169 0.0
1.35563215351 -0.0602437817642 0.0
1.23108507306 -0.0678770883874 0.0
1.3288133308 -0.00127993209136 0.0
1.33263464395 -0.0403400870487 0.0
1.31037445032 -0.0414583004432 0.0
1.29883591047 -0.0299382275716 0.0
1.34478821866 -0.0280381638894 0.0
1.31827976046 -0.0637328950005 0.0
1.33847893722 0.0161052262343 0.0
1.2981386097 -0.0441080349946 0.0
1.2847837686 -0.0403900291109 0.0
1.30648847474 0.0461173180771 0.0
1.25895505946 0.0235674297541 0.0
1.2151432711 -0.0107841303349 0.0
1.32632721451 -0.0320389934421 0.0
1.21466090273 0.0444416784311 0.0
1.28984322635 0.0414871969321 0.0
1.16955993273 0.130263280065 0.0
1.25992253257 -0.00370290500504 0.0
1.26767147502 0.0165384264192 0.0
1.23922199059 0.0428424205188 0.0
1.1903321622 0.0505134797902 0.0
1.23419527831 0.0271454497892 0.0
1.12836215759 -0.0775853842919 0.0
1.25609147606 -0.0311611743489 0.0
1.21182326679 -0.06063222862 0.0
1.14336889288 -0.0566688185312 0.0
1.16400826971 -0.0474068658755 0.0
1.20504437849 -0.0253836807045 0.0
1.25078025768 0.016080621288 0.0
1.06356723658 -0.0294993964724 0.0
1.15095332383 -0.00467011634331 0.0
1.22815265762 -0.00704614176356 0.0
1.21397322989 0.0170622341423 0.0
1.14464042145 0.00130416099456 0.0
1.16744477323 0.056145736787 0.0
1.2030227033 0.0426503571556 0.0
1.11497981801 0.00491525527538 0.0
1.24786745226 0.00585236758656 0.0
1.13370062097 -0.0467054954523 0.0
1.16906001177 -0.0509657776713 0.0
0.984252259161 0.0546113303725 0.0
0.972469960619 0.0555160979535 0.0
0.875438021977 0.0162126483914 0.0
1.09743030477 0.0110358724227 0.0
0.958080548557 -0.0485884044392 0.0
1.06624538174 -0.068229436444 0.0
1.10205279639 -0.0325204823187 0.0
0.842461023971 -0.0257533791651 0.0
0.942583927108 0.0556453413891 0.0
0.996457940665 0.0454306910381 0.0
1.08648511483 -0.0181681748742 0.0
0.937027508214 -0.00249187647873 0.0
1.04236564008 0.00925823581154 0.0
1.10586526379 0.0531412862162 0.0
1.01885882931 0.0269222898852 0.0
1.43827162703 -0.00574399073725 0.0
0.803345335051 0.00306322872991 0.0
1.16022198137 0.085175533866 0.0
1.44507731214 -0.0176771812265 0.0
1.13577667068 -6.31446520802e-05 0.0
0.90916101225 0.00170717115352 0.0
0.958505398894 -0.0531181463431 0.0
0.814722730588 -0.0402361125607 0.0
1.08997064738 -0.0868925150018 0.0
0.971980930354 0.0451780947097 0.0
0.911097238971 0.0531744848355 0.0
0.890500538699 -0.0641942291378 0.0
1.07495365565 -0.0328476200318 0.0
0.861222706715 0.0124982476683 0.0
1.03004054604 0.0471937298997 0.0
0.855207098771 -0.0512523965643 0.0
0.980538586873 -0.0338512002141 0.0
0.886360002965 0.000579710794306 0.0
0.985966929372 -0.0323526223798 0.0
0.839431490899 -0.0222416941859 0.0
0.877118751695 -0.0563421069372 0.0
0.914370735037 -0.0437232065656 0.0
0.958363214871 -0.0494456532958 0.0
0.854940767472 -0.0708038093037 0.0
0.862873551597 -0.0546285786975 0.0
0.986121399088 -0.059426191155 0.0
0.837773423601 -0.0169509310056 0.0
0.956963617161 -0.0461822550711 0.0
1.39776171345 0.00120706134903 0.0
1.41317067126 0.0630645969706 0.0
0.811609491604 0.0272804613981 0.0
0.91733322119 0.0557938851481 0.0
1.44301689053 0.0440357142883 0.0
1.45164041963 0.0430941423658 0.0
0.773691890101 0.0285106581412 0.0
0.949759727982 0.0393150235375 0.0
0.787873419412 -0.0270921933833 0.0
0.981847398464 -0.050028300266 0.0
0.951064821326 -0.0453423161696 0.0
0.872686451435 -0.0379096570346 0.0
0.979835390016 0.0346958281469 0.0
1.45248446282 0.0290605075515 0.0
1.43530554471 0.0310873242704 0.0
1.45177528166 -0.0398396599078 0.0
1.44191028885 -0.0293298791438 0.0
1.41664632795 -0.0286500392535 0.0
1.46151023209 -0.0457344345983 0.0
1.44648886338 0.0246436147833 0.0
1.44528932202 -0.0453694714119 0.0
1.40459117317 -0.0182706563821 0.0
1.34723691314 -0.0507111552626 0.0
1.31693520707 -0.0518514529942 0.0
1.45443501758 -0.0631540817089 0.0
1.44791914123 -0.0627790405667 0.0
1.44806869036 -0.00695645695247 0.0
1.43593701378 -0.00659405081676 0.0
1.45611550431 -0.0259184799666 0.0
1.44350499107 0.0307388947654 0.0
1.43675388175 0.0167886653375 0.0
1.43996418151 -0.0344647349044 0.0
1.4155072142 -0.0457885292708 0.0
1.42373412193 0.0149790794502 0.0
1.43820745714 -0.0258428325833 0.0
1.42432342814 0.0583622273457 0.0
1.42823624116 0.0326589774623 0.0
0.992180423884 -0.00278785984647 0.0
0.895571384049 -0.050392491832 0.0
0.908574345911 -0.0489463858519 0.0
0.966924349528 0.0437320264767 0.0
0.819928468895 -0.0012826912565 0.0
0.757920819211 -0.00220635046198 0.0
0.999283057547 -0.0173937386437 0.0
0.813252190362 0.0452400620687 0.0
0.904253451726 0.0551874663347 0.0
0.885198748254 0.0990693972783 0.0
1.00058598069 -0.0538958311521 0.0
1.17866469536 0.248794478236 0.0
0.894314385458 0.0120468463918 0.0
0.842055401963 -0.0333112205072 0.0
1.12092117407 -0.0453679016091 0.0
1.35537578975 -0.0296704712531 0.0
1.18089823573 -0.0842109178069 0.0
0.839250028848 -0.0281093145085 0.0
0.856601351133 -0.0366100523104 0.0
0.903384222248 0.045229926632 0.0
0.773290995318 0.0195217839028 0.0
0.792701882875 -0.0318368446158 0.0
0.689147411959 -0.0145182252744 0.0
0.798857060027 0.0483562621303 0.0
0.898367655425 0.0420750379925 0.0
0.741134884311 -0.0142334990598 0.0
0.925829191665 -0.0305168102168 0.0
1.35136066381 -0.0564655890118 0.0
1.35603110384 -0.024085439863 0.0
0.783722379023 -0.0468907976463 0.0
1.38777778272 -0.00523120984185 0.0
1.36035788838 0.00467037738316 0.0
0.921817132395 0.0512775802236 0.0
0.889079228692 0.193248134854 0.0
1.38560921119 0.0385728704925 0.0
1.38420721418 0.0505203308601 0.0
0.838540980819 -0.0254494294742 0.0
0.985115269779 0.02515029473 0.0
1.41650163466 0.023914199785 0.0
1.34895881323 0.0168056038141 0.0
1.33891063878 -0.0358021655229 0.0
1.39146141429 -0.0364444539744 0.0
0.89980794778 0.081329843731 0.0
1.34663138743 -0.0382452416305 0.0
1.32526669444 0.0160756396932 0.0
1.303837563 0.0145587505385 0.0
1.3103489237 -0.037879132925 0.0
1.26471021193 -0.0452671332034 0.0
1.32410957943 0.039539263809 0.0
1.3351261628 -0.0413993147227 0.0
1.27102925864 -0.0276612656505 0.0
1.25778833537 0.0351413062704 0.0
1.28450196242 0.0530948931695 0.0
1.3388037151 -0.0512738640563 0.0
1.25379955621 -0.0255773267667 0.0
1.22805552841 0.0367784669036 0.0
1.32488082964 0.0241874314222 0.0
1.3343631133 -0.0665909568184 0.0
1.23108339853 -0.0504120847021 0.0
1.35496464186 -0.00799819287772 0.0
1.33228446761 0.0121513839038 0.0
1.27378992715 0.0191757174761 0.0
1.31562101421 -0.00562840404472 0.0
1.28436625903 -0.0229387879509 0.0
1.2083531959 -0.0818735594524 0.0
1.35707192111 -0.0412801664698 0.0
1.29648944972 -0.0526828823555 0.0
1.31233151214 -0.0597480822802 0.0
1.22576928548 -0.00139588757304 0.0
1.34169670538 -0.0142042582678 0.0
1.26772407101 0.0534568248321 0.0
1.31273745138 -0.0190744270035 0.0
1.24535830296 0.0457158893684 0.0
1.28748584037 0.051114579532 0.0
1.3294117128 0.024157582784 0.0
1.32175161197 0.0545277142306 0.0
0.868665560529 -0.0891200776292 0.0
1.26316381207 -0.020733915392 0.0
1.31258673775 0.066094676794 0.0
1.43150449247 0.051280940807 0.0
1.41807852881 0.0412712701205 0.0
1.30523357692 0.00696273495292 0.0
1.03723724135 0.117597012462 0.0
0.709986288293 0.0107634276974 0.0
1.17542561029 0.191829076064 0.0
1.04001428799 -0.0547536294446 0.0
1.28371157136 0.00367254426917 0.0
1.30873708463 -0.0430799068342 0.0
1.30231222263 -0.0022802341667 0.0
1.40413040231 -0.0603418629319 0.0
1.38388497737 0.000839905586006 0.0
0.892643634175 0.0317749820074 0.0
0.747764831516 0.0622437094578 0.0
1.03679539282 -0.074812722718 0.0
0.75817476417 -0.0360578073372 0.0
1.42311675183 0.00469111913353 0.0
1.40238116361 0.0345180482642 0.0
0.543352724167 0.0102999416145 0.0
0.672425998635 -0.0303797951598 0.0
0.61331038569 -0.0658958299853 0.0
1.42619587941 0.0611059446736 0.0
1.41530154619 0.0310714591646 0.0
1.37609630265 0.0150184660599 0.0
1.3780846166 -0.0118290192302 0.0
1.44358270917 0.0225808674101 0.0
1.39454905275 -0.0242144366393 0.0
1.42153118471 -0.0265333245909 0.0
1.38565949872 -0.0524409906207 0.0
0.783151183698 0.0196844437356 0.0
0.583359782524 -0.00973975313396 0.0
1.39846098649 -0.00682737928131 0.0
0.694947586228 0.0515543766933 0.0
0.681989635766 0.0365320285616 0.0
0.60239422478 0.0132950549057 0.0
0.753411403879 -0.0029755779996 0.0
0.712277252375 -0.030629857342 0.0
0.771917616856 -0.0368648591825 0.0
0.725308450881 -0.0482946162269 0.0
0.698347543319 -0.0528837418921 0.0
0.766245018268 -0.00699393120726 0.0
0.675447728595 -0.0662785572071 0.0
0.621740679161 0.00254607536519 0.0
0.781152741555 -0.0149142811675 0.0
0.513045766063 0.0550830843348 0.0
1.08322193026 0.0279686350407 0.0
0.901871311732 -0.0150055950473 0.0
0.562483492302 0.0112421535087 0.0

SCALARS scalar1 double
LOOKUP_TABLE default
3.57330894647
7.44016820003
4.76891034115
4.87341901642
-6.42387063473
-2.33202994234
9.04794268912
8.05648211438
5.89274503799
5.20871142956
5.10836323059
5.56359350932
6.33619443273
6.63943585228
7.74437984019
7.13180746387
6.43628937214
5.85252458002
5.17442145591
4.80359931957
4.67963532156
4.80778107226
5.3775398959
5.99338044795
6.91784143949
7.39181919854
7.51280686159
7.91127666505
7.61894770513
6.71411964343
7.69533597915
4.05189898326
6.62938291446
5.34004869088
5.70793932338
6.087427827
6.42751095425
7.12776494392
7.9544062818
7.77711295606
7.5325086014
7.09227162187
6.14591410248
5.40109120106
4.85061341735
4.82877786582
5.04340030151
5.79120200452
6.51515016131
6.75655269527
7.33332778728
7.15782131241
7.35647806743
5.99424406244
3.4131270392
1.16729614805
-0.716356980535
-3.00887908041
-5.91913079122
-5.34500993364
-4.57488305078
-4.28573741668
-4.92706649701
-5.18949197124
-6.43673733809
-6.6640288294
-6.87254944045
-7.4059831184
-6.60483122146
-5.9129034253
-5.52317273821
-4.86199698657
-4.2848377213
-4.40212365233
-4.70898277907
-4.74264787679
-5.64365152419
-7.61448570659
-5.85668782503
-7.18558130266
-6.85331232874
-6.39385162143
-5.9370878806
-4.24113641765
-5.53478233288
-4.25313272804
-4.16085975902
-4.87548026252
-5.44016490985
-5.86950619315
-6.62130918765
-7.41403189723
-6.85554927676
-6.70807221662
-6.31533304004
-5.23282151542
-4.99935920533
-4.64582440756
-4.50648051571
-5.1324918803
-6.1767438409
-6.56653104589
-7.58628153228
-8.35779135671
-9.46857931666
-11.6478868333
-12.3445852729
3.42174605893
0.160606265869
0.0578447378076
-1.80022520559
-0.0433708272188
0.26211018481
0.349619933226
0.590531630361
0.514184482837
0.568122290297
0.852023384716
0.754358276846
0.96583689015
0.52484938202
0.702013918228
0.375834473988
0.457876613325
0.0322984443735
0.0694066417717
0.0913072417898
1.98229596978
-0.616190535491
-1.86385086738
-1.54124174965
-1.5130538214
-1.21260960968
-1.49270502127
-1.29548129692
-1.43685168573
-1.16765566001
-1.38951484232
1.43295581046
1.33759599045
-1.18088311851
-1.43912086586
1.72775810874
1.49320071005
-0.0732065136243
-1.52471047697
1.51948575968
1.74281963851
1.39615838111
1.66368706286
1.9351633683
2.11505761102
1.54031892158
2.08733737401
1.72522409086
1.06949182518
-1.9405416811
-1.55324464828
-1.71941517837
1.61111395435
1.730708625
1.53420497996
2.25408244129
2.39180678128
2.22781916401
-2.43499640819
-1.92658276404
-1.65593828479
-2.85257358145
2.6265457248
2.26804970814
-2.24668497665
-2.52000251588
-2.24630210257
-2.2695835789
-2.41115274317
-2.09794422257
-2.42229914688
-2.32228256792
3.2925929657
3.3046099203
3.45700322599
3.40948281955
3.40796849151
3.25593325359
3.3770804564
3.66928896561
3.83691014162
-3.25362809081
-2.64644618106
-2.78499489452
-2.52962904275
1.91231220394
0.0205219219083
0.118599771169
-3.56342563859
-3.3267944655
0.0766467096491
-0.0978350307772
4.14453560199
2.95902163904
3.93310332705
0.126597560233
-3.31834731642
-3.4582092793
-3.38141648135
-2.92973504396
-3.25004372041
-3.37438394554
-3.31631623897
-3.37137363954
-3.57627524713
-3.53708003474
-3.4709581665
3.68152483255
3.51826369453
3.66705794309
3.38998015048
3.21411948582
3.71729408648
3.57853754789
3.65914651884
-0.0739091661641
-0.107311660798
3.62428851029
3.81788780594
0.339811998218
0.392923844747
3.73742454777
4.0619732513
3.77521603507
4.05155831468
3.96375284493
3.81124321504
4.02271631545
0.258229362555
0.532263774035
0.0882863643155
0.377404980981
-0.0177731877623
0.148038393922
0.0441347561316
0.112083845464
0.414582963037
0.311951797033
0.151960456498
0.0211141043242
-0.0113406567947
0.128812669718
0.312213042527
0.124335352857
0.358404845574
0.300890128125
0.268115432821
0.0385640516884
0.526814186618
0.180428978668
0.572977424839
0.365299252375
4.09106939248
3.90878957278
3.76213286438
3.98552985793
3.66531188997
3.70454854909
4.07271189943
3.72374476894
3.86736264703
-3.16193107035
-3.22060948263
0.19608466837
-3.74798685788
-3.40891906329
-3.13985107054
1.53330805172
-0.272994462429
-3.85005590515
-3.95277707196
-3.9833179093
-3.70546620508
-4.13111951232
-3.73763666904
-3.59839966927
-3.78229663937
-3.56625050749
-4.01945598436
-1.25368614699
-0.180731567242
-3.73826086877
-1.10787019111
-0.98615893205
-3.31671784474
3.64432017808
-0.951184977837
-0.979370401217
3.40491476033
-3.39783123998
-0.793757402214
-1.10507370211
-1.17449048075
-0.986252923641
3.78182563582
-1.2539006254
-1.18966554324
-1.4016712987
1.52658256634
1.51078464204
1.4819076088
1.59710106982
1.45199253066
1.98562612835
1.76670166894
1.6639084896
1.99135145548
2.13503161112
1.7666613524
1.46815245555
1.32419505574
1.66502537036
1.56697378642
1.74229573747
1.39576395871
1.69018981706
1.04629775177
1.29406592383
1.93285374915
1.39293716608
2.21734083278
1.51386311682
0.460726342269
-1.44783614599
2.05871200709
1.80603262596
-1.01003267974
-1.12090088484
3.10621143388
1.47713729715
1.4963072902
0.466619585444
0.454584401884
-1.70936051331
1.52239094642
-4.09096579424
-4.10954068136
-0.959193705648
1.96333092093
-1.40443567781
0.160203438673
-0.899046486882
-0.186491714704
-4.27158527464
4.74654993567
3.25727415223
-3.83921099032
-0.752576960315
-0.671229442115
-3.71177695853
-4.19249406107
-4.10631445704
-0.533532073809
-0.655375007901
-1.13850067538
-0.952942287447
-0.514136406387
-0.780961751735
-0.7528188034
-0.86162359549
-4.80935675762
-3.73673542264
-0.945862206603
-4.16699560931
-4.0961059261
-3.87023061722
-4.82577563832
3.81377547568
5.14789818104
4.42207435047
4.18251653706
-4.294929177
-4.30929867967
4.00194837092
5.15934231618
4.81641079031
1.77460076794
-5.34746551635
-3.72507064342

SCALARS scalar2 double
LOOKUP_TABLE default
3.57330894647
7.44016820003
4.76891034115
4.87341901642
-6.42387063473
-2.33202994234
9.04794268912
8.05648211438
5.89274503799
5.20871142956
5.10836323059
5.56359350932
6.33619443273
6.63943585228
7.74437984019
7.13180746387
6.43628937214
5.85252458002
5.17442145591
4.80359931957
4.67963532156
4.80778107226
5.3775398959
5.99338044795
6.91784143949
7.39181919854
7.51280686159
7.91127666505
7.61894770513
6.71411964343
7.69533597915
4.05189898326
6.62938291446
5.34004869088
5.70793932338
6.087427827
6.42751095425
7.12776494392
7.9544062818
7.77711295606
7.5325086014
7.09227162187
6.14591410248
5.40109120106
4.85061341735
4.82877786582
5.04340030151
5.79120200452
6.51515016131
6.75655269527
7.33332778728
7.15782131241
7.35647806743
5.99424406244
3.4131270392
1.16729614805
-0.716356980535
-3.00887908041
-5.91913079122
-5.34500993364
-4.57488305078
-4.28573741668
-4.92706649701
-5.18949197124
-6.43673733809
-6.6640288294
-6.87254944045
-7.4059831184
-6.60483122146
-5.9129034253
-5.52317273821
-4.86199698657
-4.2848377213
-4.40212365233
-4.70898277907
-4.74264787679
-5.64365152419
-7.61448570659
-5.85668782503
-7.18558130266
-6.85331232874
-6.39385162143
-5.9370878806
-4.24113641765
-5.53478233288
-4.25313272804
-4.16085975902
-4.87548026252
-5.44016490985
-5.86950619315
-6.62130918765
-7.41403189723
-6.85554927676
-6.70807221662
-6.31533304004
-5.23282151542
-4.99935920533
-4.64582440756
-4.50648051571
-5.1324918803
-6.1767438409
-6.56653104589
-7.58628153228
-8.35779135671
-9.46857931666
-11.6478868333
-12.3445852729
3.42174605893
0.160606265869
0.0578447378076
-1.80022520559
-0.0433708272188
0.26211018481
0.349619933226
0.590531630361
0.514184482837
0.568122290297
0.852023384716
0.754358276846
0.96583689015
0.52484938202
0.702013918228
0.375834473988
0.457876613325
0.0322984443735
0.0694066417717
0.0913072417898
1.98229596978
-0.616190535491
-1.86385086738
-1.54124174965
-1.5130538214
-1.21260960968
-1.49270502127
-1.29548129692
-1.43685168573
-1.16765566001
-1.38951484232
1.43295581046
1.33759599045
-1.18088311851
-1.43912086586
1.72775810874
1.49320071005
-0.0732065136243
-1.52471047697
1.51948575968
1.74281963851
1.39615838111
1.66368706286
1.9351633683
2.11505761102
1.54031892158
2.08733737401
1.72522409086
1.06949182518
-1.9405416811
-1.55324464828
-1.71941517837
1.61111395435
1.730708625
1.53420497996
2.25408244129
2.39180678128
2.22781916401
-2.43499640819
-1.92658276404
-1.65593828479
-2.85257358145
2.6265457248
2.26804970814
-2.24668497665
-2.52000251588
-2.24630210257
-2.2695835789
-2.41115274317
-2.09794422257
-2.42229914688
-2.32228256792
3.2925929657
3.3046099203
3.45700322599
3.40948281955
3.40796849151
3.25593325359
3.3770804564
3.66928896561
3.83691014162
-3.25362809081
-2.64644618106
-2.78499489452
-2.52962904275
1.91231220394
0.0205219219083
0.118599771169
-3.56342563859
-3.3267944655
0.0766467096491
-0.0978350307772
4.14453560199
2.95902163904
3.93310332705
0.126597560233
-3.31834731642
-3.4582092793
-3.38141648135
-2.92973504396
-3.25004372041
-3.37438394554
-3.31631623897
-3.37137363954
-3.57627524713
-3.53708003474
-3.4709581665
3.68152483255
3.51826369453
3.66705794309
3.38998015048
3.21411948582
3.71729408648
3.57853754789
3.65914651884
-0.0739091661641