# vtk DataFile Version 2.0
2D Simulation Python
ASCII
DATASET UNSTRUCTURED_GRID
FIELD FieldData 1
NODES 1 2 int
386 659

POINTS 386 double
0.0 1.0 0.0
1.725 0.9537060565520967 0.0
8.275 1.046293943447903 0.0
10.0 1.0 0.0
10.0 -4.8780523511924816e-17 0.0
0.0 0.0 0.0
0.1916666666663293 1.023067695058939 0.0
0.3833333333324708 1.0408853478516964 0.0
0.574999999998553 1.0493977881496837 0.0
0.7666666666645966 1.046667645477082 0.0
0.9583333333312576 1.0333162807624936 0.0
1.149999999998384 1.0123823690396512 0.0
1.341666666665662 0.9886303187620737 0.0
1.533333333332819 0.9674659265448413 0.0
1.92348484848444 0.9505788067042295 0.0
2.121969696968978 0.9594970005334876 0.0
2.320454545453434 0.9782870037281814 0.0
2.518939393937826 1.0023691226370401 0.0
2.717424242422235 1.025873814507304 0.0
2.915909090906411 1.0430722730679978 0.0
3.1143939393908 1.0497727123643719 0.0
3.312878787875129 1.0443420321255728 0.0
3.511363636359531 1.0281038538302048 0.0
3.709848484843827 1.0050159140085433 0.0
3.90833333332816 0.9807054438178208 0.0
4.106818181812215 0.9610976421437679 0.0
4.305303030296804 0.9509715249296099 0.0
4.503787878781365 0.9527951340505034 0.0
4.702272727265711 0.9661240006563255 0.0
4.900757575750005 0.9877094757106235 0.0
5.099242424235156 1.0122905242875768 0.0
5.297727272720327 1.0338759993423936 0.0
5.496212121205663 1.04720486594898 0.0
5.694696969690998 1.0490284750706562 0.0
5.89318181817668 1.0389023578570995 0.0
6.09166666666213 1.0192945561832991 0.0
6.290151515147423 0.9949840859925462 0.0
6.488636363633031 0.9718961461705636 0.0
6.687121212118713 0.9556579678747781 0.0
6.885606060604342 0.9502272876356113 0.0
7.084090909089381 0.9569277269317382 0.0
7.282575757574369 0.9741261854923325 0.0
7.481060606059355 0.997630877362608 0.0
7.679545454544343 1.021712996271568 0.0
7.878030303029329 1.0405029994663895 0.0
8.076515151514705 1.0494211932957576 0.0
8.46666666666447 1.032534073455416 0.0
8.658333333329285 1.0113696812385415 0.0
8.84999999999549 0.9876176309610926 0.0
9.041666666661694 0.9666837192381618 0.0
9.233333333327899 0.9533323545232458 0.0
9.42499999999549 0.9506022118502232 0.0
9.616666666663775 0.959114652148036 0.0
9.808333333331985 0.9769323049408742 0.0
10.0 0.7999999999999998 0.0
10.0 0.6000000000013869 0.0
10.0 0.4000000000016644 0.0
10.0 0.2000000000008322 0.0
9.799999999999999 -0.02398670829299197 0.0
9.6 -0.04203942541882448 0.0
9.399999999999999 -0.049692150346451525 0.0
9.2 -0.04505170116985441 0.0
8.999999999999998 -0.029266063018515042 0.0
8.799999999999997 -0.006240391873564451 0.0
8.599999999999998 0.018329068848722936 0.0
8.399999999999997 0.03836416281580432 0.0
8.199999999999998 0.048908475450836306 0.0
7.999999999999997 0.04735348468085407 0.0
7.799999999999997 0.03408387444753805 0.0
7.599999999999998 0.012382369039453955 0.0
7.399999999999997 -0.012382369039454711 0.0
7.199999999999998 -0.034083874447538486 0.0
6.999999999999997 -0.047353484680854305 0.0
6.799999999999997 -0.048908475450836146 0.0
6.599999999999998 -0.03836416281580382 0.0
6.399999999999997 -0.01832906884872221 0.0
6.199999999999998 0.006240391873565051 0.0
5.999999999999997 0.029266063018515597 0.0
5.799999999999998 0.04505170116985464 0.0
5.599999999999998 0.04969215034645149 0.0
5.399999999999999 0.04203942541882434 0.0
5.199999999999998 0.023986708292991595 0.0
4.999999999999999 -2.0128129807407188e-16 0.0
4.799999999999999 -0.02398670829299187 0.0
4.599999999999999 -0.0420394254188245 0.0
4.399999999999999 -0.049692150346451525 0.0
4.199999999999999 -0.04505170116985446 0.0
3.999999999999999 -0.029266063018515198 0.0
3.799999999999999 -0.00624039187356474 0.0
3.599999999999999 0.018329068848722745 0.0
3.399999999999998 0.03836416281580412 0.0
3.199999999999998 0.04890847545083629 0.0
2.999999999999999 0.04735348468085415 0.0
2.799999999999998 0.03408387444753819 0.0
2.599999999999998 0.012382369039453937 0.0
2.399999999999999 -0.012382369039454347 0.0
2.199999999999999 -0.03408387444753846 0.0
1.999999999999998 -0.047353484680854284 0.0
1.799999999999999 -0.0489084754508362 0.0
1.6 -0.038364162815804 0.0
1.4 -0.018329068848722662 0.0
1.199999999999999 0.006240391873565004 0.0
0.9999999999999982 0.029266063018515538 0.0
0.7999999999999989 0.045051701169854554 0.0
0.6000000000000014 0.049692150346451525 0.0
0.3999999999999986 0.04203942541882431 0.0
0.1999999999999993 0.023986708292991665 0.0
0.0 0.1999999999995579 0.0
0.0 0.3999999999989749 0.0
0.0 0.5999999999989468 0.0
0.0 0.7999999999994734 0.0
0.6599558628099516 0.5511463712935846 0.0
9.340044137183993 0.5330075311389728 0.0
8.74395395426557 0.5596842055719432 0.0
1.2560460407233962 0.5598009121714417 0.0
8.167867610352916 0.5698113104312816 0.0
1.8321315235049733 0.5530320987800891 0.0
2.4247975422670365 0.5816819560984122 0.0
7.575167041144116 0.5854517452943544 0.0
3.0237153646350525 0.596460537122793 0.0
6.9757269459876685 0.5747861460229459 0.0
3.621028339810167 0.5890067614316862 0.0
6.374215416760287 0.5762776290232507 0.0
4.222342701958861 0.5691867605898602 0.0
5.798601016463133 0.5302693705184234 0.0
4.798091487704099 0.5163667522179004 0.0
5.29836814587156 0.5230687691866539 0.0
9.676475086664665 0.6882224567079875 0.0
0.3235249133332283 0.7096355099991856 0.0
4.525331611952493 0.31787532146193814 0.0
3.9118163258672425 0.35382142989143 0.0
6.072406584606295 0.33796956172682957 0.0
3.3127043609219706 0.37252816128638333 0.0
6.685871062610832 0.3488179363921285 0.0
7.883819684501736 0.36549116119338493 0.0
2.116172833039288 0.3465126248829967 0.0
2.714402961326582 0.36839461815811203 0.0
7.285444005889824 0.3542353165502721 0.0
9.037602069286926 0.6589945255978655 0.0
0.9623979306431342 0.6757781994974269 0.0
1.5286242250155393 0.34412415448378175 0.0
8.471375651047483 0.36014294912693967 0.0
8.461905131305492 0.6798886985211072 0.0
1.5380948211522025 0.6635431079101691 0.0
0.9789634568635882 0.3675097337304773 0.0
9.021036542665671 0.35259785267327215 0.0
4.521996725204925 0.6689166236963976 0.0
3.9145930948094128 0.6833905979721513 0.0
6.07413558350038 0.6886960162314207 0.0
2.1136977831618764 0.6700079610600397 0.0
7.8862977997300225 0.6911201475049402 0.0
3.3169194454577338 0.7031279100811442 0.0
6.6816217383241385 0.6765219391342902 0.0
2.7199214393337385 0.6976727401633502 0.0
7.27995813714889 0.6824315283708617 0.0
0.3337741199808075 0.31264987469978794 0.0
9.66622588001821 0.2914462548107403 0.0
5.582803411536809 0.33228326890556636 0.0
5.014974121337992 0.31742852502729646 0.0
5.510490502224193 0.7047830450566162 0.0
5.0856089114773555 0.6936926158960487 0.0
0.6628352431750278 0.7483406462608543 0.0
9.337164756820563 0.7166653652753848 0.0
8.749542290235883 0.734037053250839 0.0
1.2504577081229162 0.7343618170380233 0.0
8.672585609223503 0.27281694185455324 0.0
1.3274143705704347 0.26706919456687483 0.0
0.6812048426901234 0.25133046386916047 0.0
9.318795157296615 0.21691962908476475 0.0
8.173730071767444 0.7516542714661639 0.0
1.8262695044622648 0.7208207711805844 0.0
8.086140044587278 0.28481041385822214 0.0
1.9138580593648966 0.25369509980889154 0.0
7.489859061149438 0.2733516563016757 0.0
2.5100883441248234 0.2749249172589018 0.0
6.890539077260744 0.2583798801186765 0.0
3.1088570349677056 0.29110443422226867 0.0
6.289567446658099 0.26202957506847857 0.0
3.7076852279314303 0.2756627234231807 0.0
2.4191400255603255 0.7988530347131452 0.0
7.580841956223965 0.8083562809307339 0.0
3.0176275330424827 0.8288228676764817 0.0
6.982056569033246 0.7813357534972994 0.0
3.6139574947270816 0.8133871661436011 0.0
6.383192630053698 0.7946938214490169 0.0
4.21268107658111 0.780417095808754 0.0
5.795256992412069 0.8648581383012888 0.0
4.800476944732991 0.8266543632220308 0.0
5.299346098419277 0.2015968377472353 0.0
4.308595410724378 0.24635885136826347 0.0
4.739936162005427 0.22137600799663326 0.0
5.858386885628221 0.25200034151441414 0.0
5.2980282303424255 0.7263670457072511 0.0
0.19558563444483507 0.5056636077161915 0.0
9.804414365554244 0.49637410959648715 0.0
9.48628213451639 0.13625224338009317 0.0
0.5137178654821684 0.18543019407269978 0.0
9.567641972555295 0.5014825475178781 0.0
0.4323580274426423 0.5178803921823487 0.0
9.508396053117377 0.8106018659723467 0.0
0.4916039468787495 0.8590493881504571 0.0
9.82323274503486 0.8167293160515651 0.0
0.1767672549637969 0.8375317518374161 0.0
7.693761127532455 0.1964499401799699 0.0
2.306224690218638 0.17411765097002366 0.0
8.877489936570752 0.1802187827928211 0.0
1.1225100610919154 0.19599067163818062 0.0
7.09452009726558 0.16534215160485885 0.0
2.9052728950118487 0.20805846083520924 0.0
6.494655064982822 0.16925618158877268 0.0
3.5043412381020156 0.2006358186228308 0.0
1.710899091372269 0.160117621883517 0.0
8.289100543004238 0.20510957021237106 0.0
4.104079073438751 0.16336246548742292 0.0
8.579430286347336 0.8343040424815582 0.0
1.4205697044552281 0.8136318290755205 0.0
8.924004269222447 0.8119679416342207 0.0
1.0759957306381192 0.8336016935893918 0.0
0.8420905535106256 0.8431857043854399 0.0
9.157909446477898 0.8011867521885055 0.0
8.348261233885903 0.8449065731895208 0.0
1.6517386935708223 0.8036706148851909 0.0
5.594297486544576 0.5096919100304519 0.0
5.002518307854542 0.499268200610142 0.0
7.792210603779385 0.8495659614355723 0.0
2.2077847848414898 0.8153575239228826 0.0
7.7824463633670735 0.5440408550719344 0.0
2.217541505160563 0.5326883142667281 0.0
2.8119821847680133 0.8553997383546393 0.0
7.1879072470380665 0.817230995185691 0.0
3.4082013706181105 0.856812906349756 0.0
6.590562975999686 0.8151975519532209 0.0
4.005243026522927 0.8194414157627365 0.0
5.987127625068873 0.8558517097917602 0.0
4.608613618775235 0.8162527877212445 0.0
7.181785196206077 0.5368108983879876 0.0
2.817968265118721 0.5512900598371561 0.0
6.582135709870387 0.5342903791118653 0.0
3.4154084351211833 0.5513984103914974 0.0
5.98271912689633 0.5295629641580072 0.0
4.014612919615874 0.5350236898806002 0.0
4.613987426599117 0.5148545910523886 0.0
8.552702125531992 0.5356559336608597 0.0
[...]
POINT_DATA 386
VECTORS vector double
1.0 0.0 0.0
0.0 0.0 0.0
0.0 0.0 0.0
0.0 0.0 0.0
0.0 0.0 0.0
1.0 0.0 0.0
0.0 0.0 0.0
0.0 0.0 0.0
0.0 0.0 0.0
0.0 0.0 0.0
0.0 0.0 0.0
0.0 0.0 0.0
0.0 0.0 0.0
0.0 0.0 0.0
0.0 0.0 0.0
0.0 0.0 0.0
0.0 0.0 0.0
0.0 0.0 0.0
0.0 0.0 0.0
0.0 0.0 0.0
0.0 0.0 0.0
0.0 0.0 0.0
0.0 0.0 0.0
0.0 0.0 0.0
0.0 0.0 0.0
0.0 0.0 0.0
0.0 0.0 0.0
0.0 0.0 0.0
0.0 0.0 0.0
0.0 0.0 0.0
0.0 0.0 0.0
0.0 0.0 0.0
0.0 0.0 0.0
0.0 0.0 0.0
0.0 0.0 0.0
0.0 0.0 0.0
0.0 0.0 0.0
0.0 0.0 0.0
0.0 0.0 0.0
0.0 0.0 0.0
0.0 0.0 0.0
0.0 0.0 0.0
0.0 0.0 0.0
0.0 0.0 0.0
0.0 0.0 0.0
0.0 0.0 0.0
0.0 0.0 0.0
0.0 0.0 0.0
0.0 0.0 0.0
0.0 0.0 0.0
0.0 0.0 0.0
0.0 0.0 0.0
0.0 0.0 0.0
0.0 0.0 0.0
1.01882373326 0.0899483522626 0.0
1.21445889207 -0.00532763414505 0.0
1.21079041045 0.00403930754949 0.0
1.11985684415 -0.0624138039048 0.0
0.0 0.0 0.0
0.0 0.0 0.0
0.0 0.0 0.0
0.0 0.0 0.0
0.0 0.0 0.0
0.0 0.0 0.0
0.0 0.0 0.0
0.0 0.0 0.0
0.0 0.0 0.0
0.0 0.0 0.0
0.0 0.0 0.0
0.0 0.0 0.0
0.0 0.0 0.0
0.0 0.0 0.0
0.0 0.0 0.0
0.0 0.0 0.0
0.0 0.0 0.0
0.0 0.0 0.0
0.0 0.0 0.0
0.0 0.0 0.0
0.0 0.0 0.0
0.0 0.0 0.0
0.0 0.0 0.0
0.0 0.0 0.0
0.0 0.0 0.0
0.0 0.0 0.0
0.0 0.0 0.0
0.0 0.0 0.0
0.0 0.0 0.0
0.0 0.0 0.0
0.0 0.0 0.0
0.0 0.0 0.0
0.0 0.0 0.0
0.0 0.0 0.0
0.0 0.0 0.0
0.0 0.0 0.0
0.0 0.0 0.0
0.0 0.0 0.0
0.0 0.0 0.0
0.0 0.0 0.0
0.0 0.0 0.0
0.0 0.0 0.0
0.0 0.0 0.0
0.0 0.0 0.0
0.0 0.0 0.0
0.0 0.0 0.0
0.0 0.0 0.0
0.0 0.0 0.0
0.0 0.0 0.0
1.0 0.0 0.0
1.0 0.0 0.0
1.0 0.0 0.0
1.0 0.0 0.0
1.18627802475 -0.023817807744 0.0
1.20781046424 -0.00915439845389 0.0
1.19494112054 -0.0528777090553 0.0
1.18878576378 -0.0425922833001 0.0
1.18483622676 -0.0323376960865 0.0
1.20452294743 0.0055238765561 0.0
1.17695140244 0.0597199518725 0.0
1.17710241285 0.0324699396462 0.0
1.17091040337 0.00354241520599 0.0
1.209200744 0.0177124133799 0.0
1.1832485269 -0.0510671654433 0.0
1.180951789 -0.0337826487376 0.0
1.19147677721 -0.0162559430411 0.0
1.17080168282 3.66199995376e-06 0.0
1.1627559361 0.0473299696666 0.0
1.19103166083 0.00669728732688 0.0
1.2043366081 0.030256138578 0.0
1.11286132045 -0.0680573741253 0.0
1.14206832968 0.0339067618628 0.0
1.17875717214 -0.0437049472134 0.0
1.18503412222 -0.0304889537769 0.0
1.19286326746 -0.0267793469626 0.0
1.16002480539 -0.0191990683262 0.0
1.18318670386 8.97244641894e-05 0.0
1.18097746886 0.0483118998516 0.0
1.18104212338 0.0518907445054 0.0
1.16877025453 0.0314462123907 0.0
1.204537945 -0.0363437996284 0.0
1.1871609609 -0.0273877984339 0.0
1.19471441635 -0.0218752735731 0.0
1.19121205844 -0.0579025537493 0.0
1.19145922928 -0.0443274816374 0.0
1.20320317422 -0.0262842406032 0.0
1.19991621514 -0.0428653654121 0.0
1.18502638679 -0.0455873132423 0.0
1.1939815831 0.0393421703785 0.0
1.18068644534 -0.0406282330176 0.0
1.14704822654 -0.0156067994805 0.0
1.19685501683 0.0667021018162 0.0
1.1680180729 -0.00216720877324 0.0
1.14773631867 -0.0303777234784 0.0
1.20537551451 -0.0183917126228 0.0
1.15150940385 0.0480251666471 0.0
1.19139734446 0.0575711843464 0.0
1.13889516186 0.0997275120924 0.0
1.18672056058 0.0145955107302 0.0
1.15675957577 -0.00109630072421 0.0
1.14355955155 0.0362295349891 0.0
1.13029864 0.015710523687 0.0
1.10519992171 -0.00427505198464 0.0
1.13627430247 -0.0296622788684 0.0
1.19325193365 -0.0204067992922 0.0
1.15017762105 -0.0637451263137 0.0
1.14507800012 -0.0536209554612 0.0
1.14952779478 -0.0455823632162 0.0
1.14761258324 -0.0418703875052 0.0
1.17977840857 -0.0108534076296 0.0
1.10494907903 0.011850316851 0.0
1.13398769356 -0.0370633139159 0.0
1.188192528 -0.00608500399162 0.0
1.15951287999 -0.000950200320148 0.0
1.12644009168 0.0105949024934 0.0
1.11345789322 0.0557537501848 0.0
1.14541791235 0.0555826388408 0.0
1.09718544898 0.024873228964 0.0
1.1730855052 -0.00638282539539 0.0
1.14672095076 -0.0442844121557 0.0
1.14388076545 -0.0614081031469 0.0
1.20264932972 0.0915143821501 0.0
1.18448109495 0.0738617959679 0.0
1.0844863573 0.0117249739384 0.0
1.31201112039 0.0268007735891 0.0
1.12449010783 -0.0821548061802 0.0
1.22896651149 -0.0910513344985 0.0
1.27542022117 -0.0379772151841 0.0
0.968114754454 0.00614922046841 0.0
1.20569395758 0.0931827214142 0.0
1.16480449743 0.0356674620251 0.0
1.11707546787 -0.00791523440875 0.0
1.02199893769 0.0304131967521 0.0
1.17982040437 0.027600691958 0.0
1.10687539223 -0.01690484694 0.0
1.0231579419 0.0196861422647 0.0
1.21701661673 0.00674516842424 0.0
0.945195545291 0.0260554891023 0.0
1.19548366544 0.0593960771462 0.0
1.22263878789 0.00950338817373 0.0
1.12718519872 0.00295631355486 0.0
1.13146996631 0.0156542909272 0.0
0.982529713526 -0.0309340255551 0.0
1.00234989612 -0.024316725156 0.0
1.10663894526 -0.0957301100415 0.0
1.08577008605 0.04947215204 0.0
1.01851653958 0.0684615739126 0.0
1.06352962444 -0.0812110081745 0.0
1.15281579038 -0.0642964680666 0.0
0.95261199618 0.0292006849873 0.0
1.13935652047 0.0459721784897 0.0
0.986163275351 -0.0591297987936 0.0
1.12430330384 -0.0650660163059 0.0
1.0007755042 -0.0194079609224 0.0
1.17439377398 -0.0489620116108 0.0
0.995107604187 -0.0385923741224 0.0
1.02340826698 -0.0777187357096 0.0
1.10863521566 -0.0556001408154 0.0
1.11549677444 -0.0600187622639 0.0
1.00608833912 -0.0657933866596 0.0
0.963327006364 -0.0196723037464 0.0
1.16654116027 -0.0579132197645 0.0
0.991187560024 -0.0348635024434 0.0
1.17060222955 -0.0525319076313 0.0
1.1822331487 -0.00730640517552 0.0
1.16847842204 0.047294788358 0.0
1.06299779773 0.0201107698654 0.0
1.193964243 0.110508386229 0.0
1.18255752018 0.0182692697753 0.0
1.19356074005 0.0593470711295 0.0
1.05288042799 0.0678024620327 0.0
1.24635754437 0.0687184061934 0.0
1.02649497836 -0.0451192780655 0.0
1.24037631455 -0.0798774944969 0.0
1.1901417464 -0.0576089899445 0.0
1.03372837629 -0.0225869815519 0.0
1.24111955202 0.0713027345818 0.0
1.20147303655 0.0387948705592 0.0
1.17458704444 0.0313025304562 0.0
1.19539946062 -0.0299767170496 0.0
1.18170569963 -0.0452509122885 0.0
1.17923383543 -0.00321249900485 0.0
1.18635540491 -0.0388636669155 0.0
1.17588670065 0.0364229382256 0.0
1.19546581344 -0.0487161212698 0.0
1.19803222393 -0.0325085611845 0.0
1.19489732889 -0.0380260162983 0.0
1.20586008384 -0.0319229636913 0.0
1.20260460618 -0.0464455966623 0.0
1.20007437359 -0.0321697288674 0.0
1.18947570848 0.0120650737415 0.0
1.19820444013 -0.0191377504418 0.0
1.19907259068 -0.0449788699482 0.0
1.19984956285 0.0374718366166 0.0
1.17949280843 -0.00856062418641 0.0
1.18664866681 -0.0474292602912 0.0
1.18130371757 -0.0298088453602 0.0
1.18165726078 -0.0168469459331 0.0
1.19809606194 -0.00310090252296 0.0
1.18003078968 0.0547409324821 0.0
1.18740868551 0.0479411829985 0.0
1.25514227971 0.00563131643433 0.0
1.1200648094 -0.0939824105441 0.0
1.11733432032 -0.0532329472124 0.0
1.20446316563 0.0649170114611 0.0
1.02438594501 -0.0183766181441 0.0
1.01009039893 -0.0381051862752 0.0
1.27808785216 -0.00866101860113 0.0
1.10054155786 0.0693751887744 0.0
1.20072140236 0.110822967529 0.0
1.0398708804 0.123124864849 0.0
1.26266120455 -0.0402322264593 0.0
1.1459784161 0.237789460015 0.0
1.05161327679 0.0157044461523 0.0
1.0114414826 -0.0238787060888 0.0
1.19236989175 -0.0772661207203 0.0
1.23635804187 -0.00133563317515 0.0
1.17744782539 -0.0549437720841 0.0
0.970023496212 -0.069113815229 0.0
1.09706477108 -0.0635046708322 0.0
1.09322744289 0.0395107539078 0.0
0.91722035036 0.0235468704765 0.0
0.988445925105 -0.0687633932997 0.0
0.872763242793 0.00152349869389 0.0
0.915229356046 0.0668204805562 0.0
1.03699353891 0.0582206381984 0.0
0.884822914612 -0.00516179130564 0.0
1.10038536025 -0.0538287029865 0.0
1.18978105359 -0.0423204378025 0.0
1.19021031132 -0.0442332792348 0.0
0.968657780635 -0.0860759502348 0.0
1.20339277274 -0.026840262239 0.0
1.18568888227 -0.00851139060466 0.0
1.07459317232 0.0620517261149 0.0
1.11592221737 0.159791377014 0.0
1.18077797462 0.0503015275792 0.0
1.18084991419 0.0330383953582 0.0
0.94024419886 -0.00684522104521 0.0
1.21463886623 0.0118538263051 0.0
1.19366111458 0.0142145773261 0.0
1.17576920719 0.0321825521215 0.0
1.1725874198 -0.0279148693466 0.0
1.18822231982 -0.0537153258342 0.0
1.14787906019 0.0997844311539 0.0
1.16735479553 -0.0305503834688 0.0
1.16965762273 0.0107052017789 0.0
1.15762384657 0.0346542407428 0.0
1.18221175004 -0.0458604363587 0.0
1.19794834235 -0.0449026170238 0.0
1.17856931103 0.054269770717 0.0
1.18538694154 -0.0503359192343 0.0
1.15816716452 0.00174819610818 0.0
1.15176401895 0.0309312741349 0.0
1.1720377512 0.0553640699277 0.0
1.19079652691 -0.026423197965 0.0
1.15994897568 -0.0591110491121 0.0
1.15402039077 0.0138131042639 0.0
1.20473267141 0.054063474247 0.0
1.2025472059 -0.0553564831276 0.0
1.17574749702 -0.0313368049954 0.0
1.1953474733 0.0222858722749 0.0
1.23181491362 0.0247864321659 0.0
1.17576641135 -0.0199108506298 0.0
1.21494448926 -0.00719263898534 0.0
1.18015208156 -0.0484469789487 0.0
1.17717355731 -0.0298830316638 0.0
1.21245259274 -0.0222638804538 0.0
1.18024585074 -0.0406373016302 0.0
1.14754057501 -0.0512361229728 0.0
1.15079612592 -0.00310608941093 0.0
1.20683093941 -0.0200031865056 0.0
1.21621734534 0.0281028996943 0.0
1.19408281546 0.0226783231905 0.0
1.15612116828 0.0691851444651 0.0
1.17385039305 0.0368056998216 0.0
1.17054357332 -0.00558354632229 0.0
1.16887117062 0.0173249000865 0.0
1.02230006495 -0.104049474042 0.0
1.17750429836 0.00148720592636 0.0
1.16252278375 0.0557385087899 0.0
1.19101764457 0.00664903037992 0.0
1.19793712226 0.00967426494042 0.0
1.19071486075 0.009312511965 0.0
1.03233676623 0.10774407798 0.0
0.843209929594 0.0290216225674 0.0
1.19528488751 0.165570406256 0.0
1.05070457167 -0.0587916005381 0.0
1.22543961841 0.00144579807189 0.0
1.16896179089 -0.0156001932789 0.0
1.21405111801 -0.0144563426811 0.0
1.19379368543 -0.0557554816271 0.0
1.18874922348 -0.0303433544445 0.0
1.14476286559 0.0286425361698 0.0
1.01268005901 0.0830906862674 0.0
1.04322788739 -0.0655769108917 0.0
0.952524375195 -0.0341166680671 0.0
1.19186825017 -0.017324636128 0.0
1.17966619946 0.0296093385137 0.0
0.756789467977 0.0358347480886 0.0
0.907927104815 -0.0527715965862 0.0
0.822980171125 -0.109166947187 0.0
1.17272832854 0.06436277637 0.0
1.1721234202 0.0350794310877 0.0
1.17453503201 0.0398580578553 0.0
1.19448281886 0.00271684335801 0.0
1.18896559759 -0.00143800146947 0.0
1.17115943008 0.00135802065799 0.0
1.17917995942 -0.0452580727946 0.0
1.17672848505 -0.0397782198286 0.0
1.00643098651 0.0236175912493 0.0
0.743811849051 -0.00495557492668 0.0
1.16499287379 0.0056365460618 0.0
0.874733643488 0.0955572628261 0.0
0.854215375609 0.0505851157906 0.0
0.788850566306 0.0338857673567 0.0
1.04266777422 -0.0144759259724 0.0
0.781235003566 0.00103678364232 0.0
1.04721812358 -0.0356999430283 0.0
0.930594229208 -0.0830566506704 0.0
0.918678585072 -0.0781077311419 0.0
0.933790936697 -0.0325820946751 0.0
0.957522956925 -0.101405210554 0.0
0.843326589579 -0.0253915354643 0.0
1.0814212475 -0.0170265835002 0.0
0.804793378636 0.0957994327051 0.0
1.11724134338 0.0490026501542 0.0
1.04727965668 -0.0364215083874 0.0
0.769703413458 0.0360378796627 0.0

SCALARS scalar1 double
LOOKUP_TABLE default
4.13678426655
10.9843196733
6.37888946524
7.67121776528
-7.81301655177
-2.23474387501
8.96540862656
7.72739713315
6.1507302526
5.83555374668
6.12745319477
7.42038888282
8.773646653
8.91134272846
11.4183258028
10.3294542939
8.83158312198
8.04658168046
7.7980771605
6.50211135304
6.24184944033
6.91081094161
6.87861821094
7.62913476517
9.65056813406
9.69417915863
10.1562141793
11.4921446801
10.9043819666
9.72707742294
10.225533477
5.04553230997
7.53257037855
6.13199007077
6.92330117435
7.96050577422
8.30888014373
9.35242610423
11.5164127672
10.5400204486
10.2902081349
10.5654553371
8.3590403935
7.25104205181
6.71189308828
6.49931172251
6.28633546527
7.59839841261
8.79232258237
8.88225481302
10.7020478308
11.0788395282
10.9327067506
9.8590414254
1.56902366739
-0.118892638009
0.0409197999001
-1.37663457801
-7.53160018843
-6.55326210033
-6.31349182989
-5.95749732501
-6.55334356372
-7.62661566007
-10.2323210553
-9.65473592485
-10.6729247084
-11.7531382927
-9.0045148015
-8.09615356588
-7.55042527599
-6.08233389601
-5.60316092033
-6.07991440743
-6.13416335758
-6.59775193489
-8.46204730555
-10.9558346342
-8.76285968422
-10.6185370128
-9.62338043486
-8.48631734054
-7.71269906985
-5.6608533708
-7.57004572815
-6.34475527305
-5.94935016044
-6.69042005343
-8.29448477284
-8.65477420184
-9.22464232566
-11.3436001416
-9.87940067247
-8.86281702492
-8.96041229548
-7.00086015159
-6.37954515796
-6.55265947347
-5.99310867998
-6.43377659144
-8.19188557374
-8.3119249689
-8.95879718189
-10.6639960872
-11.8828967906
-12.829214743
-12.788431678
3.17460901595
0.168161219576
0.0165338947939
-2.00522037397
-0.0278215922826
-0.0263197813105
-0.0298916493723
-0.0447891228891
-0.0728768223098
-0.0341884639517
-0.118562713233
-0.14776481689
-0.132851377886
-0.135544630296
-0.115233256831
-0.102444772261
-0.128088149266
-0.0565385432314
0.0167535576615
-0.0434440694478
0.0413101941061
-0.562468739124
0.0767329502321
0.102103351554
0.133542540668
0.129265073961
-0.0222191369911
0.0613278617706
0.0521481635302
0.0997965473058
-0.0875100279824
-0.0755962098341
0.160288048261
0.0893974614444
0.0962271255405
0.101864278991
-0.0668139084251
0.139612703028
-0.0158918057002
-0.336306643942
-0.194871283584
-0.173158663414
-0.130210428678
-0.192921230144
-0.03466930472
-0.371369325028
-0.202982787706
-0.339732924753
0.717245180698
-0.387551683111
0.239972718372
-0.314161883231
0.158403887368
-0.228424948117
0.837493954381
0.223504211128
0.462295263262
0.455874964738
-0.330364096676
-0.248422958985
-0.790503441171
-0.865037435534
0.525573644882
0.236778071754
-0.228836146455
-0.483770486938
-0.590503181979
-0.413884775004
-0.70666595893
-0.261690561413
-0.607115286612
-0.29756368189
0.590633890941
0.582162512432
1.09235931134
0.554838909327
1.19179097708
0.491452291574
0.672634063775
2.53759975376
1.03026932766
-1.30391045115
-0.493616103885
-0.999018942292
-0.229302233669
0.143878691106
-0.00287186569109
-0.0129633117988
-2.84284255322
-2.19552779956
-0.0115830631519
-0.054282529346
2.23604239947
2.8273177664
2.34813059539
-0.0290925438101
-1.76907074469
-1.81847663441
-1.62953827761
-0.993019587689
-2.17244994843
-1.52639546599
-1.88546038471
-1.41305656675
-1.81348277084
-1.3980112446
-1.71660711231
1.96464678925
2.05320004615
2.03441700766
1.95096682477
2.42961312531
1.48958861034
2.36035249819
1.52601691037
-0.0726681329155
0.0193750386673
1.83959069361
1.41994787957
-0.0783250917554
0.00241044047537
1.8792895369
1.58723507806
2.12600830059
1.66861053555
1.63501182896
1.88816813373
1.30173587828
-0.0590121028367
-0.0597411574393
-0.0483157399967
-0.0623921292515
-0.00361209160575
-0.0394783150012
-0.00633518843581
-0.0202866642572
-0.0157159586353
-0.0192187638506
0.000111174831924
-0.0139913911161
-0.009284766594
-0.0367600563997
-0.00291293135542
-0.0284203891584
-0.00747798649968
-0.0767791835418
-0.0579786320799
0.0235948659078
-0.0755784461796
-0.0514592187517
-0.0678863523313
-0.0542217330677
1.54819589301
2.02792886711
1.2891215125
1.87703969821
1.94189835842
2.13304410871
1.40267106367
1.85533846275
1.29221487202
-2.20096999052
-0.712163618745
0.0596810328403
-2.7997921633
-1.71366827193
-1.51706498196
-0.00651910148897
-0.186101060068
-2.85099268619
-2.01931069302
-2.15791338724
-2.94426261632
-3.40595950701
-3.38197928792
-2.63256619347
-2.66062015624
-2.60212648593
-2.5417379346
0.00105526877233
0.131263069245
-2.75240929858
0.016053550493
0.137778662457
-1.96239604187
1.42396431334
0.128930936467
-0.0318732668667
3.18803345738
-0.969923054188
0.123999753859
-0.062021725385
0.0290684552278
0.132622062195
1.02424742943
0.156060881386
0.31982868223
-0.0353406969411
-0.0147275942897
0.087673247551
-0.378428456308
-0.300692359104
-0.0423272364961
-0.0826067267756
-0.202216936137
-0.172419537187
-0.0380647577814
-0.129553774828
-0.149947196895
0.0912029883593
0.000967984036304
-0.128477698705
-0.00272150229086
-0.189689746997
-0.111019522137
0.136523484143
0.284017368223
-0.116799343049
0.118922987146
-0.243314211713
0.117032132245
-0.389181570777
0.236287076989
-0.00245832051694
-0.105327928981
-0.337522962287
0.19683751225
0.022505463576
3.15836478249
0.0479508433419
-0.327670556209
-0.0626597036829
-0.0526568109495
-0.163488822996
1.17385045311
-3.8081966074
-3.3149687716
-1.05674369531
0.00603664940971
0.077576749476
0.0947742477855
0.0226568880675
0.0632849672608
-3.78321145732
3.57453804033
3.44162497308
-3.00717551984
0.00725268208734
0.0773258807492
-3.8881406527
-3.92278307949
-3.80035612445
0.0579266503957
-0.0162980045037
0.0921088338699
0.229311515858
0.0357466259496
0.00162545960255
0.0541821026155
0.0847812840853
-4.03252457728
-3.69220139407
0.0884192215145
-3.81658663404
-3.68834274228
-3.76676190353
-3.46963695079
3.87267436823
4.02117001781
3.71057737581
3.6944761617
-3.84614766024
-3.42632067544
3.65256078932
3.90161887367
5.68307833007
1.73668886563
-4.19066072952
-3.881056801

SCALARS scalar2 double
LOOKUP_TABLE default
4.13678426655
10.9843196733
6.37888946524
7.67121776528
-7.81301655177
-2.23474387501
8.96540862656
7.72739713315
6.1507302526
5.83555374668
6.12745319477
7.42038888282
8.773646653
8.91134272846
11.4183258028
10.3294542939
8.83158312198
8.04658168046
7.7980771605
6.50211135304
6.24184944033
6.91081094161
6.87861821094
7.62913476517
9.65056813406
9.69417915863
10.1562141793
11.4921446801
10.9043819666
9.72707742294
10.225533477
5.04553230997
7.53257037855
6.13199007077
6.92330117435
7.96050577422
8.30888014373
9.35242610423
11.5164127672
10.5400204486
10.2902081349
10.5654553371
8.3590403935
7.25104205181
6.71189308828
6.49931172251
6.28633546527
7.59839841261
8.79232258237
8.88225481302
10.7020478308
11.0788395282
10.9327067506
9.8590414254
1.56902366739
-0.118892638009
0.0409197999001
-1.37663457801
-7.53160018843
-6.55326210033
-6.31349182989
-5.95749732501
-6.55334356372
-7.62661566007
-10.2323210553
-9.65473592485
-10.6729247084
-11.7531382927
-9.0045148015
-8.09615356588
-7.55042527599
-6.08233389601
-5.60316092033
-6.07991440743
-6.13416335758
-6.59775193489
-8.46204730555
-10.9558346342
-8.76285968422
-10.6185370128
-9.62338043486
-8.48631734054
-7.71269906985
-5.6608533708
-7.57004572815
-6.34475527305
-5.94935016044
-6.69042005343
-8.29448477284
-8.65477420184
-9.22464232566
-11.3436001416
-9.87940067247
-8.86281702492
-8.96041229548
-7.00086015159
-6.37954515796
-6.55265947347
-5.99310867998
-6.43377659144
-8.19188557374
-8.3119249689
-8.95879718189
-10.6639960872
-11.8828967906
-12.829214743
-12.788431678
3.17460901595
0.168161219576
0.0165338947939
-2.00522037397
-0.0278215922826
-0.0263197813105
-0.0298916493723
-0.0447891228891
-0.0728768223098
-0.0341884639517
-0.118562713233
-0.14776481689
-0.132851377886
-0.135544630296
-0.115233256831
-0.102444772261
-0.128088149266
-0.0565385432314
0.0167535576615
-0.0434440694478
0.0413101941061
-0.562468739124
0.0767329502321
0.102103351554
0.133542540668
0.129265073961
-0.0222191369911
0.0613278617706
0.0521481635302
0.0997965473058
-0.0875100279824
-0.0755962098341
0.160288048261
0.0893974614444
0.0962271255405
0.101864278991
-0.0668139084251
0.139612703028
-0.0158918057002
-0.336306643942
-0.194871283584
-0.173158663414
-0.130210428678
-0.192921230144
-0.03466930472
-0.371369325028
-0.202982787706
-0.339732924753
0.717245180698
-0.387551683111
0.239972718372
-0.314161883231
0.158403887368
-0.228424948117
0.837493954381
0.223504211128
0.462295263262
0.455874964738
-0.330364096676
-0.248422958985
-0.790503441171
-0.865037435534
0.525573644882
0.236778071754
-0.228836146455
-0.483770486938
-0.590503181979
-0.413884775004
-0.70666595893
-0.261690561413
-0.607115286612
-0.29756368189
0.590633890941
0.582162512432
1.09235931134
0.554838909327
1.19179097708
0.491452291574
0.672634063775
2.53759975376
1.03026932766
-1.30391045115
-0.493616103885
-0.999018942292
-0.229302233669
0.143878691106
-0.00287186569109
-0.0129633117988
-2.84284255322
-2.19552779956
-0.0115830631519
-0.054282529346
2.23604239947
2.8273177664
2.34813059539
-0.0290925438101
-1.76907074469