# vtk DataFile Version 2.0
2D Simulation Python
ASCII
DATASET UNSTRUCTURED_GRID
FIELD FieldData 1
NODES 1 2 int
386 659

POINTS 386 double
0.0 1.0 0.0
1.725 0.9973139977450649 0.0
8.275 1.002686002254935 0.0
10.0 1.0 0.0
10.0 -2.830275115737231e-18 0.0
0.0 0.0 0.0
0.1916666666663293 1.0013384014480036 0.0
0.3833333333324708 1.0023721923073383 0.0
0.574999999998553 1.002866089178775 0.0
0.7666666666645966 1.0027076846699183 0.0
0.9583333333312576 1.0019330305130478 0.0
1.149999999998384 1.0007184324489309 0.0
1.341666666665662 0.9993403243023069 0.0
1.533333333332819 0.9981123536222157 0.0
1.92348484848444 0.9971325528406667 0.0
2.121969696968978 0.9976499917743858 0.0
2.320454545453434 0.9987401989849248 0.0
2.518939393937826 1.0001374579107194 0.0
2.717424242422235 1.0015012141747786 0.0
2.915909090906411 1.0024990790148611 0.0
3.1143939393908 1.0028878425056917 0.0
3.312878787875129 1.002572751193938 0.0
3.511363636359531 1.0016306023885229 0.0
3.709848484843827 1.000291026327292 0.0
3.90833333332816 0.9988805183237063 0.0
4.106818181812215 0.9977428619568406 0.0
4.305303030296804 0.9971553385867139 0.0
4.503787878781365 0.9972611454773356 0.0
4.702272727265711 0.9980344942804951 0.0
4.900757575750005 0.9992868964383483 0.0
5.099242424235156 1.0007131035615473 0.0
5.297727272720327 1.0019655057194305 0.0
5.496212121205663 1.0027388545226343 0.0
5.694696969690998 1.0028446614133015 0.0
5.89318181817668 1.0022571380432097 0.0
6.09166666666213 1.0011194816763587 0.0
6.290151515147423 0.9997089736727712 0.0
6.488636363633031 0.9983693976115217 0.0
6.687121212118713 0.9974272488060822 0.0
6.885606060604342 0.9971121574943074 0.0
7.084090909089381 0.9975009209851236 0.0
7.282575757574369 0.9984987858252004 0.0
7.481060606059355 0.9998625420892603 0.0
7.679545454544343 1.0012598010150606 0.0
7.878030303029329 1.002350008225607 0.0
8.076515151514705 1.0028674471593324 0.0
8.46666666666447 1.0018876463777993 0.0
8.658333333329285 1.000659675697729 0.0
8.84999999999549 0.9992815675511123 0.0
9.041666666661694 0.9980669694869901 0.0
9.233333333327899 0.9972923153301007 0.0
9.42499999999549 0.9971339108212195 0.0
9.616666666663775 0.9976278076926464 0.0
9.808333333331985 0.9986615985519857 0.0
10.0 0.7999999999999998 0.0
10.0 0.6000000000013869 0.0
10.0 0.4000000000016644 0.0
10.0 0.2000000000008322 0.0
9.799999999999999 -0.0013917231448634824 0.0
9.6 -0.002439152577231027 0.0
9.399999999999999 -0.0028831682492840346 0.0
9.2 -0.0026139266158449123 0.0
8.999999999999998 -0.0016980344599346496 0.0
8.799999999999997 -0.0003620712645259058 0.0
8.599999999999998 0.00106346352442268 0.0
8.399999999999997 0.002225911645395092 0.0
8.199999999999998 0.002837698963671601 0.0
7.999999999999997 0.002747477470242858 0.0
7.799999999999997 0.001977566757216061 0.0
7.599999999999998 0.0007184324489193821 0.0
7.399999999999997 -0.000718432448919426 0.0
7.199999999999998 -0.0019775667572160868 0.0
6.999999999999997 -0.0027474774702428715 0.0
6.799999999999997 -0.002837698963671592 0.0
6.599999999999998 -0.002225911645395063 0.0
6.399999999999997 -0.001063463524422638 0.0
6.199999999999998 0.00036207126452594065 0.0
5.999999999999997 0.001698034459934682 0.0
5.799999999999998 0.0026139266158449253 0.0
5.599999999999998 0.0028831682492840324 0.0
5.399999999999999 0.002439152577231019 0.0
5.199999999999998 0.0013917231448634605 0.0
4.999999999999999 -1.1678461160078986e-17 0.0
4.799999999999999 -0.0013917231448634763 0.0
4.599999999999999 -0.0024391525772310286 0.0
4.399999999999999 -0.0028831682492840346 0.0
4.199999999999999 -0.0026139266158449154 0.0
3.999999999999999 -0.0016980344599346591 0.0
3.799999999999999 -0.0003620712645259226 0.0
3.599999999999999 0.001063463524422669 0.0
3.399999999999998 0.002225911645395081 0.0
3.199999999999998 0.0028376989636716005 0.0
2.999999999999999 0.0027474774702428623 0.0
2.799999999999998 0.0019775667572160694 0.0
2.599999999999998 0.000718432448919381 0.0
2.399999999999999 -0.0007184324489194049 0.0
2.199999999999999 -0.001977566757216085 0.0
1.999999999999998 -0.0027474774702428697 0.0
1.799999999999999 -0.002837698963671595 0.0
1.6 -0.0022259116453950734 0.0
1.4 -0.0010634635244226643 0.0
1.199999999999999 0.000362071264525938 0.0
0.9999999999999982 0.0016980344599346786 0.0
0.7999999999999989 0.002613926615844921 0.0
0.6000000000000014 0.0028831682492840346 0.0
0.3999999999999986 0.0024391525772310173 0.0
0.1999999999999993 0.0013917231448634644 0.0
0.0 0.1999999999995579 0.0
0.0 0.3999999999989749 0.0
0.0 0.5999999999989468 0.0
0.0 0.7999999999994734 0.0
0.6678915725959558 0.536436958589839 0.0
9.332108427399964 0.5364369585890589 0.0
8.750132450591927 0.5506960869899322 0.0
1.2498675494039537 0.550696086989921 0.0
8.174032264135212 0.5498445052942911 0.0
1.825967735863654 0.5498445052937755 0.0
2.418567295624824 0.5605870701059215 0.0
7.581432704373232 0.5605989128839727 0.0
3.014784120622567 0.5605902670077226 0.0
6.985172458121188 0.5605396356659532 0.0
3.610726640972639 0.5605283078041056 0.0
6.386248723767179 0.5602821598736522 0.0
4.209309039669713 0.559958217994044 0.0
5.802919286003517 0.5136288984503518 0.0
4.792575750270755 0.5113399422619378 0.0
5.297706186402614 0.512470656406924 0.0
9.668948285380061 0.6911922813716906 0.0
0.33105171461725624 0.6913158997070756 0.0
4.516362448137511 0.3232285609073496 0.0
3.8986185490966 0.3403305540033333 0.0
6.080042400096589 0.3238477711185543 0.0
3.3008603596305743 0.34032756139544723 0.0
6.697929509029805 0.3402805009841 0.0
7.8917286729276945 0.3396784200956348 0.0
2.1082713270713 0.3395929919249366 0.0
2.7040521558359196 0.34019363052376517 0.0
7.295944586981923 0.34011172682127044 0.0
9.037461182852388 0.6637283922214843 0.0
0.9625388171421155 0.6638163303370441 0.0
1.5203624097030919 0.3392114178233485 0.0
8.479637590294983 0.3393045155601774 0.0
8.46705744021449 0.6657680324587599 0.0
1.532942559782806 0.665682158974264 0.0
0.9798849666140502 0.3510905438838615 0.0
9.020115033382817 0.3510137016103086 0.0
4.511080799328552 0.6674743532270612 0.0
3.9062200870698707 0.6674174898480939 0.0
6.084316098808868 0.6694306253874066 0.0
2.111050455320367 0.6665493059096588 0.0
7.888949544678595 0.6666619747922926 0.0
3.3102621739031353 0.6676250854589256 0.0
6.6894888998481665 0.6675229911912781 0.0
2.714506990010662 0.6677009917086705 0.0
7.285493009986476 0.6676232755637127 0.0
0.34041031473394257 0.30311966143061775 0.0
9.659589685265157 0.30299282104681985 0.0
5.5810152634969565 0.3121239995464693 0.0
5.015878571805126 0.3115858437226289 0.0
5.5137985806325975 0.6858399334595509 0.0
5.080500727952708 0.6838500180571788 0.0
0.6685192030956227 0.7289892427382949 0.0
9.331480796899008 0.7287804889365268 0.0
8.753459913344232 0.7315843787104928 0.0
1.2465400866509957 0.731586579319146 0.0
8.679620709650274 0.25776967818658864 0.0
1.3203792903477085 0.2577379096922106 0.0
0.6890603276779935 0.23145647415022474 0.0
9.310939672320577 0.231217809374595 0.0
8.176669234715755 0.7315371419889738 0.0
1.8233307652831716 0.7313297749021027 0.0
8.093967824166539 0.25650603168440195 0.0
1.906032175832643 0.25629004393259375 0.0
7.499451686415813 0.2569864235883079 0.0
2.5005483135825175 0.25699106811646116 0.0
6.901915048676056 0.2571066930347389 0.0
3.0977519114141128 0.2572792722043344 0.0
6.299154625459925 0.25381582791725843 0.0
3.695333244186268 0.2573911186276572 0.0
2.4172390397506605 0.7896108007306627 0.0
7.582760960247228 0.7899269996977775 0.0
3.0138640667562826 0.7902934534935426 0.0
6.986135933239627 0.7887757901223497 0.0
3.609502629158365 0.7897200801844546 0.0
6.389821800026214 0.7895633124346825 0.0
4.2057196025120325 0.7888049699151684 0.0
5.799639647217908 0.8345632026933946 0.0
4.795104887305768 0.8306969013165735 0.0
5.299095661741034 0.17979175386709673 0.0
4.297479556665692 0.2535888769145852 0.0
4.737830245696537 0.23051319873999693 0.0
5.859573993289756 0.2315606348364232 0.0
5.297257407561438 0.7114195186576046 0.0
0.20091758286607478 0.4981940613098657 0.0
9.799082417132857 0.49819406131032223 0.0
9.480683328253692 0.16061662857321435 0.0
0.5193166717456771 0.16213460528341161 0.0
9.558757026643876 0.504400119788672 0.0
0.4412429733535267 0.5044001197894197 0.0
9.503249178016192 0.8296051893834935 0.0
0.4967508219792289 0.8311006560343394 0.0
9.818892130171056 0.821115448609247 0.0
0.18110786982737584 0.8216017815979634 0.0
7.700116944406039 0.17467976751523837 0.0
2.2998830555930807 0.17392033954318406 0.0
8.8797361495177 0.18008459060936824 0.0
1.1202638504807292 0.1806569860637821 0.0
7.102384369458095 0.17378079791452708 0.0
2.8975752711929053 0.17511723440771135 0.0
6.502273621492959 0.17376139346556796 0.0
3.495752122939602 0.17506621079400536 0.0
1.705172848081281 0.17312302173515537 0.0
8.294827151917946 0.17456060059461778 0.0
4.0954488155448185 0.173625624858816 0.0
8.582172158903719 0.8229974449433537 0.0
1.4178278410925231 0.8222863017810416 0.0
8.925281788563497 0.8218412109454897 0.0
1.074718211430672 0.822581849192267 0.0
0.843714767885675 0.8220702433875317 0.0
9.156285232108049 0.8207547006944264 0.0
8.350503770871434 0.8233043150948945 0.0
1.649496229126785 0.8220076315383668 0.0
5.595954433159773 0.4934731959153352 0.0
4.999547461766641 0.4918689877572526 0.0
7.792864031262508 0.8237945503362798 0.0
2.207135968735987 0.8226369727818447 0.0
7.7882435010538815 0.5183088025324082 0.0
2.211756498944828 0.5183088025321086 0.0
2.809328102939547 0.8233201839176131 0.0
7.190671897057074 0.822034564689844 0.0
3.4049442800379786 0.8232696453620019 0.0
6.594977699857072 0.8219600239948677 0.0
4.000623606138969 0.8219722969224392 0.0
5.992807911097384 0.8319767043309858 0.0
4.6023783010903205 0.8286673062037462 0.0
7.19104051737716 0.5185569682598344 0.0
2.8089581971551687 0.5185567843990526 0.0
6.593717629483236 0.5185878718990932 0.0
3.4049800489097404 0.5185307388017358 0.0
5.991319406879302 0.5132061182623701 0.0
4.002058402208371 0.5184571727635279 0.0
4.6042984609015125 0.5114329193939812 0.0
[...]
POINT_DATA 386
VECTORS vector double
1.0 0.0 0.0
0.0 0.0 0.0
0.0 0.0 0.0
0.0 0.0 0.0
0.0 0.0 0.0
1.0 0.0 0.0
0.0 0.0 0.0
0.0 0.0 0.0
0.0 0.0 0.0
0.0 0.0 0.0
0.0 0.0 0.0
0.0 0.0 0.0
0.0 0.0 0.0
0.0 0.0 0.0
0.0 0.0 0.0
0.0 0.0 0.0
0.0 0.0 0.0
0.0 0.0 0.0
0.0 0.0 0.0
0.0 0.0 0.0
0.0 0.0 0.0
0.0 0.0 0.0
0.0 0.0 0.0
0.0 0.0 0.0
0.0 0.0 0.0
0.0 0.0 0.0
0.0 0.0 0.0
0.0 0.0 0.0
0.0 0.0 0.0
0.0 0.0 0.0
0.0 0.0 0.0
0.0 0.0 0.0
0.0 0.0 0.0
0.0 0.0 0.0
0.0 0.0 0.0
0.0 0.0 0.0
0.0 0.0 0.0
0.0 0.0 0.0
0.0 0.0 0.0
0.0 0.0 0.0
0.0 0.0 0.0
0.0 0.0 0.0
0.0 0.0 0.0
0.0 0.0 0.0
0.0 0.0 0.0
0.0 0.0 0.0
0.0 0.0 0.0
0.0 0.0 0.0
0.0 0.0 0.0
0.0 0.0 0.0
0.0 0.0 0.0
0.0 0.0 0.0
0.0 0.0 0.0
0.0 0.0 0.0
1.03847356281 0.0393588787764 0.0
1.03839423376 -0.0138360551982 0.0
1.02342922832 0.00134053922741 0.0
1.12369200187 -0.0221826119535 0.0
0.0 0.0 0.0
0.0 0.0 0.0
0.0 0.0 0.0
0.0 0.0 0.0
0.0 0.0 0.0
0.0 0.0 0.0
0.0 0.0 0.0
0.0 0.0 0.0
0.0 0.0 0.0
0.0 0.0 0.0
0.0 0.0 0.0
0.0 0.0 0.0
0.0 0.0 0.0
0.0 0.0 0.0
0.0 0.0 0.0
0.0 0.0 0.0
0.0 0.0 0.0
0.0 0.0 0.0
0.0 0.0 0.0
0.0 0.0 0.0
0.0 0.0 0.0
0.0 0.0 0.0
0.0 0.0 0.0
0.0 0.0 0.0
0.0 0.0 0.0
0.0 0.0 0.0
0.0 0.0 0.0
0.0 0.0 0.0
0.0 0.0 0.0
0.0 0.0 0.0
0.0 0.0 0.0
0.0 0.0 0.0
0.0 0.0 0.0
0.0 0.0 0.0
0.0 0.0 0.0
0.0 0.0 0.0
0.0 0.0 0.0
0.0 0.0 0.0
0.0 0.0 0.0
0.0 0.0 0.0
0.0 0.0 0.0
0.0 0.0 0.0
0.0 0.0 0.0
0.0 0.0 0.0
0.0 0.0 0.0
0.0 0.0 0.0
0.0 0.0 0.0
0.0 0.0 0.0
0.0 0.0 0.0
1.0 0.0 0.0
1.0 0.0 0.0
1.0 0.0 0.0
1.0 0.0 0.0
1.03255232564 0.00413927000216 0.0
1.03340983062 -0.00539954237514 0.0
1.03252202562 -0.00635821031021 0.0
1.03308809673 -0.00244337995432 0.0
1.03286289928 -0.00356269348035 0.0
1.03289588027 0.00291146619618 0.0
0.995760193187 0.00689777687568 0.0
0.996721538739 0.00124878623837 0.0
0.995773248114 0.00377809356227 0.0
0.998347898124 0.000915534075518 0.0
0.996115680707 -0.000232207638786 0.0
0.996772807075 -0.00238893743012 0.0
0.997200754487 -2.80940041968e-06 0.0
1.03609549651 0.0086568138691 0.0
1.03777446376 -0.00245533885946 0.0
1.04197434263 0.00442179395153 0.0
0.972874730412 -0.00636918623849 0.0
0.969197699055 0.00411556919369 0.0
0.955429776639 0.00291816611588 0.0
0.96144446415 -0.00163925959063 0.0
0.971529814586 -0.00925126734311 0.0
0.963106710402 0.000637010579048 0.0
0.96609764619 -0.0022420914497 0.0
0.970810082471 -0.00203560297785 0.0
0.962932079391 0.00485535439411 0.0
0.962578167766 0.00527458828813 0.0
0.9666041856 0.00083618679469 0.0
0.945557230743 -0.00221351807563 0.0
0.943457686374 0.00113793940391 0.0
0.967979764414 -0.000300930911542 0.0
0.973621477896 -0.0064330328161 0.0
0.944910544506 -0.00174598713806 0.0
0.946377487613 0.000536008498897 0.0
0.954439353156 -0.00372161586221 0.0
0.950278903235 -0.00404839371736 0.0
0.965451644035 -0.00293234338543 0.0
0.958203241647 -0.00248731265307 0.0
0.954337383007 0.00190882527085 0.0
0.949294292494 0.0120818743796 0.0
0.95208732494 -0.00548146028595 0.0
0.957978895762 -0.000652209170669 0.0
0.960032278618 -0.00135663959851 0.0
0.958006968805 0.00378935460816 0.0
0.959808859412 0.00242881956311 0.0
0.967005796557 0.0104006051196 0.0
0.960078477807 -0.00653939313469 0.0
0.943816216111 0.00879713565248 0.0
0.956760151489 -0.0147563450063 0.0
0.953632379513 0.0285602352971 0.0
0.933522702108 -0.0157909439685 0.0
0.934329532506 0.00315131496934 0.0
0.936799181547 -0.00700634860807 0.0
0.92664204405 -0.00815103904064 0.0
0.926498003644 -0.0065279065885 0.0
0.942839920434 -0.0022661821056 0.0
0.94506106868 -0.00790209746306 0.0
0.932803886386 0.00533349533565 0.0
0.931022443962 -0.000270311161861 0.0
0.926577114742 -0.00343479927988 0.0
0.927353957465 -0.00220648954869 0.0
0.948794167795 0.000321025296291 0.0
0.946960945897 -0.00169606862783 0.0
0.945824561395 0.00297001948091 0.0
0.946780914547 0.00187133070317 0.0
0.944452250067 -8.79739300736e-05 0.0
0.947869516477 -0.00198336918726 0.0
0.949314763967 -0.00289089855958 0.0
0.946145345047 -0.00662420733601 0.0
1.27264961409 0.00220500826148 0.0
1.27300476269 0.0026798953179 0.0
1.26932777464 -0.000930843955146 0.0
1.28156059132 -0.00129512517928 0.0
1.27240236089 -0.00808541572698 0.0
1.27822864661 -0.0104075706006 0.0
1.27602676715 -0.00697686607269 0.0
1.24857980281 0.00699343895492 0.0
1.25163450534 0.00133097296751 0.0
1.24697116168 0.00384953906765 0.0
0.953177443581 -0.00382742807887 0.0
1.10080376379 0.0128036491844 0.0
1.11653117498 0.026887266571 0.0
1.09557249047 -0.0148076301641 0.0
1.04167119263 0.00136045128948 0.0
1.05053019079 -0.00568905477786 0.0
1.22045416443 -0.0038650263896 0.0
1.22092724494 0.00249686446634 0.0
1.04349685854 -0.00598679085462 0.0
1.04558763558 0.00607884083047 0.0
1.21024052984 -0.00853614484442 0.0
1.20215719529 0.0147740452704 0.0
1.05880459206 -0.0544357910818 0.0
1.0848171183 -0.0647042216233 0.0
1.2047647385 0.000445207305697 0.0
1.20528092149 0.0151810993144 0.0
1.22619105059 -0.0150992610938 0.0
1.22822071154 0.0011859432421 0.0
1.19653460181 -0.000788093257347 0.0
1.20938806261 0.0117476216869 0.0
1.19628001774 -0.00535816136295 0.0
1.20816554578 0.00366820008706 0.0
1.20706162484 0.00690993375525 0.0
1.21101448932 -0.00666480396374 0.0
1.20116102048 0.00589784625316 0.0
1.24295229039 -0.0153303835681 0.0
1.2445742664 0.00622041077574 0.0
1.2440466556 0.0047505396789 0.0
1.24217151519 -0.0140761952773 0.0
1.23381353493 0.0085519009673 0.0
1.2415233204 -0.0126955389083 0.0
1.23910322298 0.0075561262436 0.0
1.2469577149 -0.0103458261876 0.0
1.06148448241 0.00802950604685 0.0
1.06204951965 -0.0025871861651 0.0
1.27843010771 -0.0059896411421 0.0
1.28717274565 0.0160544940674 0.0
1.05179548224 -0.00260850760332 0.0
1.0508625831 0.00674399320435 0.0
1.28174338363 0.0165837693584 0.0
1.29325518904 -0.00279205316917 0.0
1.28173952084 0.00746287157123 0.0
1.29492782274 -0.0119474340093 0.0
1.28953567239 0.00509130012853 0.0
1.26001333554 -0.00104283681326 0.0
1.2580485153 0.00480497400933 0.0
1.04775057408 -0.000887348792125 0.0
1.04854281717 0.00560072549155 0.0
1.04724583264 -0.00529889834383 0.0
1.04865741347 0.000188914417642 0.0
1.04173193185 0.00491157947695 0.0
1.04844431697 -0.000880830134058 0.0
1.04336328954 0.000481804434898 0.0
1.03557299654 -0.0047837831473 0.0
1.0342271676 -0.00292354766328 0.0
1.04560790502 -0.00396077854714 0.0
1.04369636239 0.000388834835092 0.0
1.04440724797 -0.00360740482016 0.0
1.04367907572 -0.00428668047625 0.0
1.04453555113 -0.00681878840598 0.0
1.04132755547 -0.00258677253984 0.0
1.04204819507 -0.00126125214058 0.0
1.0283993443 0.0034452432287 0.0
1.03266789378 -0.000737984825708 0.0
1.03859776917 -0.00890662486194 0.0
1.04612562202 0.0019321142731 0.0
1.03904415501 -0.00569074556045 0.0
1.04415813088 0.00328291106948 0.0
1.03912376158 -0.00114655598605 0.0
1.04399341343 0.00663570500904 0.0
1.28631821987 -0.011158968954 0.0
1.28809832854 -0.0141496222155 0.0
1.28982672427 0.000594305275094 0.0
1.25362922302 0.0175010151761 0.0
1.24429249194 -0.00768831925562 0.0
1.28123366297 -0.00977588337514 0.0
1.29606356752 0.00891794379606 0.0
1.28440657104 -0.00115317573138 0.0
1.29071119167 0.0171076760691 0.0
1.31162529171 0.011390243296 0.0
1.32385825087 6.49587272124e-05 0.0
1.14759584654 0.0581218790989 0.0
1.31047361266 -0.0173907013398 0.0
1.23374888853 0.00744062786428 0.0
1.23741716506 -0.0143511636249 0.0
1.01707269933 -0.00878628509201 0.0
1.01537039273 0.011202207673 0.0
1.22716506297 -0.020814642677 0.0
1.22769565361 0.00255580223157 0.0
1.22502219122 0.0116156987023 0.0
1.22374558035 -0.012074898173 0.0
1.2007074434 -0.019699098965 0.0
1.21131113213 -0.0108719175354 0.0
1.21405567531 0.015856924735 0.0
1.2273725455 -0.00884665980405 0.0
1.21077267201 0.00915410490075 0.0
1.22947253911 -0.0169875039158 0.0
1.00579248283 -0.0047572096926 0.0
1.00432490148 -0.00374446893921 0.0
1.22406053955 -0.0214963480812 0.0
1.00601803995 -0.00159371996764 0.0
1.00052686158 0.000147416130537 0.0
1.26077303667 -0.0125023958015 0.0
1.30485798663 0.0183502276402 0.0
0.999253594416 0.00479923570788 0.0
1.00390932516 0.00110967912582 0.0
1.2247387462 0.0335860064187 0.0
1.27117591331 0.00682987827454 0.0
1.00150541986 0.00199188795494 0.0
1.00233222628 0.00128065391949 0.0
1.00072045955 -0.00153391869524 0.0
1.00111104411 -0.00275946827355 0.0
1.23974422783 -0.00130223552399 0.0
0.99928789314 -0.0017538834681 0.0
0.965832731399 0.0139246396953 0.0
0.97764895849 -0.00136612296608 0.0
1.00934507989 -0.00293347717442 0.0
1.0148691895 -0.006191086803 0.0
0.964368806924 -0.000944307782245 0.0
0.932150013718 -0.005616763075 0.0
0.956066410806 0.00574901920851 0.0
0.936731512153 -0.000729609164206 0.0
0.930479875617 -0.000315110421421 0.0
0.938225136962 -0.00209077900004 0.0
0.931340811553 -0.00403372358703 0.0
0.931167762206 0.000386448960592 0.0
0.939008289732 0.00196699800328 0.0
1.01323579043 -0.00835550011538 0.0
1.00770345733 -0.00113372920853 0.0
0.939057721782 -0.00257622325688 0.0
1.01596212142 0.00113429453598 0.0
1.01057621643 0.00163922269964 0.0
1.01044368088 0.00163956414149 0.0
1.01224945257 -0.00542799040682 0.0
1.01005185529 -0.00148965993891 0.0
1.00889085408 -0.00247108006963 0.0
0.937001591098 -0.00308770309598 0.0
0.929593250492 -0.00583611253588 0.0
0.936505933323 -0.000797658722176 0.0
0.934025159295 -0.0033446455868 0.0
1.02350702997 0.00155188583967 0.0
1.02449956952 -0.00200423478701 0.0
0.937055960416 0.00342860091319 0.0
0.933004004852 0.000136499032275 0.0
0.964193501062 0.00161889089319 0.0
0.965480202476 -0.000381517120021 0.0
1.29250566081 -0.0113367855333 0.0
0.965570310027 0.0109578112292 0.0
0.970931483723 -0.000313612406733 0.0
1.03361619784 -0.00837468719587 0.0
1.03507613301 0.0111955024742 0.0
0.981410645488 -0.000190738993591 0.0
0.996169924655 0.0225007988525 0.0
1.23251426888 0.000150942796689 0.0
1.27521738268 0.0161631817033 0.0
0.98969781575 -0.0368915401434 0.0
1.05107897133 -0.0233046997219 0.0
1.01341579574 -0.00491367190516 0.0
1.01881530438 0.00528244824883 0.0
1.04723517778 -0.00490184996071 0.0
1.0470905023 -0.00623651494234 0.0
1.28840936177 0.0183121835324 0.0
1.2537345377 -5.07432217852e-05 0.0
1.26174893375 -0.00207416335916 0.0
1.29488519432 -0.0152134116583 0.0
1.04727506023 -0.00100374869064 0.0
1.04511955786 0.000461671336748 0.0
1.2362057921 0.00906719112595 0.0
1.24384814834 -0.000604466336149 0.0
1.23741734626 -0.0181043138456 0.0
1.0445267792 0.00214150771385 0.0
1.04447694618 0.00280681146019 0.0
1.02281463937 9.23751666784e-05 0.0
1.0252512334 0.00448218337574 0.0
1.0451275331 -0.00213239900788 0.0
1.0432758299 -0.000140628263345 0.0
1.0442921375 -0.00628729739221 0.0
1.04021966498 -0.00562724408386 0.0
1.24898069214 0.00790466531856 0.0
1.22661097378 -0.00867473228897 0.0
1.04494195782 -0.00311339940867 0.0
1.24367208988 0.015140475568 0.0
1.23563565337 -0.00181902728103 0.0
1.24108106263 0.00757744442934 0.0
1.24821205948 -0.00730052666458 0.0
1.24310224029 0.00467372534251 0.0
1.25411846929 -0.00918511430012 0.0
1.25747937413 -0.0121853545571 0.0
1.25725238104 -0.0108910788222 0.0
1.24841452982 0.000214604281134 0.0
1.24909428394 -0.0158108891773 0.0
1.25786118412 -0.00367457135819 0.0
1.26968754883 -0.00388429195284 0.0
1.28777618323 -0.000728819624076 0.0
1.20274575567 -0.0458146781817 0.0
1.28149262452 -0.000171365634129 0.0
1.26755488308 0.00479737912736 0.0

SCALARS scalar1 double
LOOKUP_TABLE default
3.83709758926
11.7142695687
11.3992931484
15.2389454262
-9.76606945881
-3.287080042
11.3820352496
11.427849702
11.3587880209
11.2497461178
9.36613309343
11.4582950643
11.5475922242
9.54808301005
11.6234844393
9.91035967317
8.95573210997
8.91643022547
10.045976233
8.81907934004
8.80171277954
9.99596335028
8.84790180399
8.88846435238
10.1541719665
8.99106674446
9.02712778394
10.2735777703
10.2759458993
10.2324391742
12.0161247292
8.00273637695
11.9875061654
10.1958399294
10.2025744738
10.1727127058
8.95867735717
8.97401672418
10.2263644236
9.00948445874
8.99885509735
10.1799547538
8.9226219857
8.86512044493
9.70043093277
11.2930313855
9.39673069671
11.4744620721
11.5545102469
9.53157485807
11.6092875563
11.7464123477
11.6900854254
13.355145568
-0.806347925684
0.0834026543545
-0.0907360577655
1.08981063286
-12.2187062711
-11.5598998558
-12.4863633126
-11.7439915593
-9.29323141352
-11.388580024
-13.5643562171
-10.3541043835
-11.940269858
-13.6481676662
-10.3322666234
-11.849944949
-13.3466966827
-10.1512412881
-11.6460989946
-13.1391314487
-10.1376634583
-11.7906273352
-13.4073133378
-13.3599592736
-9.07863603265
-10.406822385
-9.79528229461
-9.75427656704
-10.2855696954
-8.9292869903
-13.1144076052
-13.1534835476
-11.7434001513
-10.1571078298
-13.311417228
-11.8991194212
-10.3319545267
-13.5817800483
-11.9787542861
-10.3284138762
-13.4362098694
-11.7425671551
-10.1416170731
-13.2225359311
-11.5976361912
-10.1491347775
-13.4158512575
-11.4422214066
-9.44309814712
-12.1336956161
-12.831005406
-12.4093764906
-12.4501927765
1.76511733565
-0.438713059922
0.442559335867
-2.56909057737
-0.0475178016407
-0.0549068706577
-0.0712861875854
-0.0651226459004
-0.0713078558242
-0.0684621383772
0.196000790318
0.188845584947
0.193965265862
0.187505395517
0.195391147663
0.183025677299
0.19203872257
-0.0411063014876
-0.0599455115437
0.129800522851
0.384022436842
0.49341041455
-0.489929396861
-0.399563267153
-0.394641068834
-0.403766924199
-0.392329934006
-0.403218537515
-0.399268393149
-0.402715355152
-0.390833067949
0.488013876169
0.472334570192
-0.407649128148
-0.414101013337
0.467200494686
0.484667408935
-0.508603836266
-0.490598260659
0.460982069836
0.458206349663
0.432045878847
0.415182636143
0.516012867915
0.454253808229
0.454162088916
0.457336867094
0.454767245365
-0.525810768178
-0.516859057282
-0.329068317868
-0.309072153637
0.435901807729
0.524188390948
0.448044770884
0.467631109571
0.447402558731
0.454262920308
-0.460573503985
-0.413889878317
-0.290433634675
-0.363108991309
0.458107155056
0.477368220468
-0.45943941212
-0.415725768513
-0.453316023065
-0.428075872614
-0.447313802553
-0.435161526077
-0.450664228508
-0.435591605897
-2.0584796768
-2.07742340161
-2.06719204022
-2.08278726466
-2.07191444918
-2.0711807262
-2.08764256383
-2.16625205296
-2.02300691008
2.00879267088
-0.431389057678
1.02384479348
1.110980206
-0.611594561641
0.0160760244229
0.030491275023
2.17159225294
2.35310150427
0.015145443749
0.056206744789
-2.16901256143
-2.22278960842
-1.28558489711
-0.540558310605
1.80765451408
1.94583744891
1.77175106397
1.98193234315
1.79959237953
1.96016638161
1.8006582907
1.95905578094
1.94160294837
1.80787504047
1.95318118234
-2.16535442568
-1.96048533409
-1.95304017367
-2.1610302193
-1.92063414012
-2.15599759839
-1.94455527982
-2.17092938629
-0.0154243427191
-0.00762165813973
-1.69963413957
-2.1345536522
-0.0127795714592
-0.0221398513608
-2.12649190675
-1.83521369708
-2.12296837665
-1.84153160649
-2.20719219297
-2.15974710595
-2.10710770495
-0.00652041523301
-0.0233943669747
-0.00579045412541
-0.0234518028943
-0.0306556604983
-0.0260951815163
-0.0382403951625
0.010262921786
-0.0312570582822
0.037748449641
0.00403914207822
-0.00611285549486
0.0258634344473
-0.0297626763177
0.0208813904479
0.00288977076556
-0.0227439738609
0.00414369112434
-0.0392024597156
-0.0288263478342
-0.037408881709
-0.0386550570881
-0.0378663182363
-0.0392395994261
-1.8125456456
-1.80739629127
-2.22472982838
-2.08703596674
-2.26674473632
-1.74898872272
-2.22947630896
-1.78356284904
-2.18396955621
1.52229690641
2.44214712704
1.58094522258
2.50549240194
2.06657554369
1.80247264666
0.232180936946
0.202301716561
2.06823779275
1.92784230492
1.89986709831
2.07500041167
2.48324543444
2.47959147075
1.80632004956
2.07087482488
1.76830916258
2.0780844343
-0.0920667810596
-0.198313168817
2.07768587243
-0.104992339632
-0.178290364238
2.27757812837
-2.1548290965
-0.197772004053
-0.120218201692
-2.47448895539
2.16936083892
-0.199930691714
-0.117246283178
-0.116408145167
-0.198600066788
-2.22878743242
-0.193765243972
-0.37515580309
-0.254844608122
0.245842309282
0.236563089913
0.428610377986
0.459441319264
0.428629746976
0.221615240507
0.452002393004
0.227933612682
0.452287978487
0.451061941754
0.231377362696
0.234594669855
0.240950201243
0.244611704282
0.252646859828
0.244329127646
0.237398397339
0.223511898339
0.219948269712
0.230597280173
0.225740093641
0.45081644183
0.222139714328
0.460796075566
-0.183477045036
-0.0982658336225
0.228095071252
0.456796256225
-0.463062651876
-0.442276702424
-0.692871598035
0.457669361209
0.402222579406
0.12346402553
0.0918466016613
-0.323251926306
-0.256881967859
1.33334276304
1.43084442296
0.581905327095
0.175306910442
-0.182401268999
-0.110320265183
0.0371533496812
0.08736955511
0.830584082384
-1.77679511548
-0.924968452933
2.21770849496
0.0470576345466
0.0894679576334
0.895240393843
1.11857071139
1.55453028714
0.0859912751373
0.0188108830151
-0.0804903413488
-0.0580344446828
0.0874424131726
0.0179572863237
0.0866673716468
0.0302284408069
1.19037393229
1.3687102352
0.0992858582426
1.12073360219
1.47182706152
1.03442552011
1.56676140937
-1.28481305487
-1.2705121277
-1.24070401429
-1.23663069405
1.10806393738
1.57456304783
-1.25048034035
-1.37575275417
1.4027318124
-0.969480176829
1.20601558095
0.907213794724

SCALARS scalar2 double
LOOKUP_TABLE default
3.83709758926
11.7142695687
11.3992931484
15.2389454262
-9.76606945881
-3.287080042
11.3820352496
11.427849702
11.3587880209
11.2497461178
9.36613309343
11.4582950643
11.5475922242
9.54808301005
11.6234844393
9.91035967317
8.95573210997
8.91643022547
10.045976233
8.81907934004
8.80171277954
9.99596335028
8.84790180399
8.88846435238
10.1541719665
8.99106674446
9.02712778394
10.2735777703
10.2759458993
10.2324391742
12.0161247292
8.00273637695
11.9875061654
10.1958399294
10.2025744738
10.1727127058
8.95867735717
8.97401672418
10.2263644236
9.00948445874
8.99885509735
10.1799547538
8.9226219857
8.86512044493
9.70043093277
11.2930313855
9.39673069671
11.4744620721
11.5545102469
9.53157485807
11.6092875563
11.7464123477
11.6900854254
13.355145568
-0.806347925684
0.0834026543545
-0.0907360577655
1.08981063286
-12.2187062711
-11.5598998558
-12.4863633126
-11.7439915593
-9.29323141352
-11.388580024
-13.5643562171
-10.3541043835
-11.940269858
-13.6481676662
-10.3322666234
-11.849944949
-13.3466966827
-10.1512412881
-11.6460989946
-13.1391314487
-10.1376634583
-11.7906273352
-13.4073133378
-13.3599592736
-9.07863603265
-10.406822385
-9.79528229461
-9.75427656704
-10.2855696954
-8.9292869903
-13.1144076052
-13.1534835476
-11.7434001513
-10.1571078298
-13.311417228
-11.8991194212
-10.3319545267
-13.5817800483
-11.9787542861
-10.3284138762
-13.4362098694
-11.7425671551
-10.1416170731
-13.2225359311
-11.5976361912
-10.1491347775
-13.4158512575
-11.4422214066
-9.44309814712
-12.1336956161
-12.831005406
-12.4093764906
-12.4501927765
1.76511733565
-0.438713059922
0.442559335867
-2.56909057737
-0.0475178016407
-0.0549068706577
-0.0712861875854
-0.0651226459004
-0.0713078558242
-0.0684621383772
0.196000790318
0.188845584947
0.193965265862
0.187505395517
0.195391147663
0.183025677299
0.19203872257
-0.0411063014876
-0.0599455115437
0.129800522851
0.384022436842
0.49341041455
-0.489929396861
-0.399563267153
-0.394641068834
-0.403766924199
-0.392329934006
-0.403218537515
-0.399268393149
-0.402715355152
-0.390833067949
0.488013876169
0.472334570192
-0.407649128148
-0.414101013337
0.467200494686
0.484667408935
-0.508603836266
-0.490598260659
0.460982069836
0.458206349663
0.432045878847
0.415182636143
0.516012867915
0.454253808229
0.454162088916
0.457336867094
0.454767245365
-0.525810768178
-0.516859057282
-0.329068317868
-0.309072153637
0.435901807729
0.524188390948
0.448044770884
0.467631109571
0.447402558731
0.454262920308
-0.460573503985
-0.413889878317
-0.290433634675
-0.363108991309
0.458107155056
0.477368220468
-0.45943941212
-0.415725768513
-0.453316023065
-0.428075872614
-0.447313802553
-0.435161526077
-0.450664228508
-0.435591605897
-2.0584796768
-2.07742340161
-2.06719204022
-2.08278726466
-2.07191444918
-2.0711807262
-2.08764256383
-2.16625205296
-2.02300691008
2.00879267088
-0.431389057678
1.02384479348
1.110980206