# vtk DataFile Version 2.0
2D Simulation Python
ASCII
DATASET UNSTRUCTURED_GRID
FIELD FieldData 1
NODES 1 2 int
386 659

POINTS 386 double
0.0 1.0 0.0
1.725 1.0008067770778426 0.0
8.275 0.9991932229221575 0.0
10.0 1.0 0.0
10.0 -4.778334768033539e-19 0.0
0.0 0.0 0.0
0.1916666666663293 1.0002326778452528 0.0
0.3833333333324708 1.0004519228634008 0.0
0.574999999998553 1.000645077723794 0.0
0.7666666666645966 1.0008009913181646 0.0
0.9583333333312576 1.0009106625301656 0.0
1.149999999998384 1.0009677598827815 0.0
1.341666666665662 1.0009689870636154 0.0
1.533333333332819 1.0009142732257494 0.0
1.92348484848444 1.0006464697016133 0.0
2.121969696968978 1.0004461521987054 0.0
2.320454545453434 1.00021822225558 0.0
2.518939393937826 0.9999767864976143 0.0
2.717424242422235 0.999736787427507 0.0
2.915909090906411 0.9995130786310858 0.0
3.1143939393908 0.9993195054861949 0.0
3.312878787875129 0.9991680482697589 0.0
3.511363636359531 0.9990680806962783 0.0
3.709848484843827 0.9990257897769443 0.0
3.90833333332816 0.9990437929043984 0.0
4.106818181812215 0.9991209758618282 0.0
4.305303030296804 0.9992525617820486 0.0
4.503787878781365 0.9994304067886733 0.0
4.702272727265711 0.9996435040220978 0.0
4.900757575750005 0.9998786648560293 0.0
5.099242424235156 1.0001213351439526 0.0
5.297727272720327 1.0003564959778863 0.0
5.496212121205663 1.0005695932113137 0.0
5.694696969690998 1.0007474382179418 0.0
5.89318181817668 1.000879024138166 0.0
6.09166666666213 1.0009562070955993 0.0
6.290151515147423 1.0009742102230563 0.0
6.488636363633031 1.0009319193037245 0.0
6.687121212118713 1.000831951730245 0.0
6.885606060604342 1.0006804945138095 0.0
7.084090909089381 1.0004869213689187 0.0
7.282575757574369 1.0002632125724968 0.0
7.481060606059355 1.000023213502389 0.0
7.679545454544343 0.9997817777444229 0.0
7.878030303029329 0.9995538478012964 0.0
8.076515151514705 0.9993535302983874 0.0
8.46666666666447 0.9990857267742514 0.0
8.658333333329285 0.9990310129363854 0.0
8.84999999999549 0.9990322401172175 0.0
9.041666666661694 0.9990893374698313 0.0
9.233333333327899 0.9991990086818303 0.0
9.42499999999549 0.9993549222762005 0.0
9.616666666663775 0.9995480771365952 0.0
9.808333333331985 0.9997673221547453 0.0
10.0 0.7999999999999998 0.0
10.0 0.6000000000013869 0.0
10.0 0.4000000000016644 0.0
10.0 0.2000000000008322 0.0
9.799999999999999 -0.00024258495084573375 0.0
9.6 -0.0004699273970647848 0.0
9.399999999999999 -0.0006677425766541757 0.0
9.2 -0.0008236010343669857 0.0
8.999999999999998 -0.0009277096100977901 0.0
8.799999999999997 -0.0009735267791488655 0.0
8.599999999999998 -0.0009581736802849811 0.0
8.399999999999997 -0.0008826150051724986 0.0
8.199999999999998 -0.0007515983832540917 0.0
7.999999999999997 -0.0005733560707303436 0.0
7.799999999999997 -0.0003590876876264791 0.0
7.599999999999998 -0.00012225650447691234 0.0
7.399999999999997 0.00012225650447691787 0.0
7.199999999999998 0.00035908768762648365 0.0
6.999999999999997 0.000573356070730349 0.0
6.799999999999997 0.0007515983832540958 0.0
6.599999999999998 0.000882615005172497 0.0
6.399999999999997 0.0009581736802849876 0.0
6.199999999999998 0.0009735267791488613 0.0
5.999999999999997 0.0009277096100977955 0.0
5.799999999999998 0.0008236010343669824 0.0
5.599999999999998 0.0006677425766541783 0.0
5.399999999999999 0.000469927397064776 0.0
5.199999999999998 0.00024258495084572858 0.0
4.999999999999999 -1.9716668774724067e-18 0.0
4.799999999999999 -0.00024258495084573018 0.0
4.599999999999999 -0.00046992739706477795 0.0
4.399999999999999 -0.0006677425766541914 0.0
4.199999999999999 -0.0008236010343669818 0.0
3.999999999999999 -0.000927709610097796 0.0
3.799999999999999 -0.0009735267791488613 0.0
3.599999999999999 -0.0009581736802849857 0.0
3.399999999999998 -0.0008826150051724979 0.0
3.199999999999998 -0.0007515983832540934 0.0
2.999999999999999 -0.0005733560707303453 0.0
2.799999999999998 -0.0003590876876264804 0.0
2.599999999999998 -0.0001222565044769087 0.0
2.399999999999999 0.00012225650447691443 0.0
2.199999999999999 0.00035908768762648555 0.0
1.999999999999998 0.0005733560707303492 0.0
1.799999999999999 0.0007515983832541032 0.0
1.6 0.0008826150051724966 0.0
1.4 0.0009581736802849771 0.0
1.199999999999999 0.0009735267791488613 0.0
0.9999999999999982 0.0009277096100977906 0.0
0.7999999999999989 0.0008236010343669894 0.0
0.6000000000000014 0.0006677425766541824 0.0
0.3999999999999986 0.00046992739706477524 0.0
0.1999999999999993 0.0002425849508457316 0.0
0.0 0.1999999999995579 0.0
0.0 0.3999999999989749 0.0
0.0 0.5999999999989468 0.0
0.0 0.7999999999994734 0.0
0.6587181585166736 0.557431875767591 0.0
9.341281790962064 0.53237435450306 0.0
8.742114105739313 0.5476801790437443 0.0
1.2578848737558448 0.5827483054977421 0.0
8.164087793420485 0.5568313884988979 0.0
1.83589978207133 0.5824909650797584 0.0
2.4289875250455255 0.5956756893078075 0.0
7.570911845118874 0.5930818888345264 0.0
3.0288302802661238 0.5880838714793066 0.0
6.970543147712415 0.6073740594380659 0.0
3.6269150951083997 0.5810674647334347 0.0
6.369265064753227 0.6048063978424731 0.0
4.227902900301201 0.5747588563840299 0.0
5.795859283268803 0.5411471982662197 0.0
4.801535668662406 0.5217522787339464 0.0
5.298718114115509 0.5248916316359685 0.0
9.677467324666598 0.694526770515807 0.0
0.32253266966341887 0.7056708113954364 0.0
4.529428117375548 0.3278026336748195 0.0
3.917288436705848 0.35449279733509403 0.0
6.068875914180888 0.3508277954433614 0.0
3.3178317603075627 0.36028406540499414 0.0
6.68098410464352 0.3821734032434955 0.0
7.8801923775373455 0.35757143170336025 0.0
2.1197733657697944 0.37141278072267536 0.0
2.718689454886384 0.36815733508009113 0.0
7.281078816776845 0.37586776452860426 0.0
9.037589903889813 0.6565526690104573 0.0
0.9624099008868273 0.6855666480416464 0.0
1.5312547323392387 0.3721484448890897 0.0
8.468741688988395 0.3438918394720886 0.0
8.459167621590199 0.6631417038027226 0.0
1.5408292912649255 0.6920389587336536 0.0
0.9790671124110278 0.37822684924137157 0.0
9.020932614062183 0.34944429651025766 0.0
4.526107675233222 0.6802497804176766 0.0
3.919901925989001 0.6842490864121453 0.0
6.070590500266923 0.7031941106006214 0.0
2.117161534013707 0.6959396102573866 0.0
7.882808820311092 0.6819853148203497 0.0
3.321816395190453 0.6888014944714953 0.0
6.676857916235474 0.7116569399345218 0.0
2.723983830103601 0.6965063287857899 0.0
7.275798734483591 0.7047266790234549 0.0
0.33282124700587135 0.3088941784065007 0.0
9.66717874502665 0.29753428152961076 0.0
5.581646843558117 0.32995612486978554 0.0
5.016720859275103 0.3203259144641487 0.0
5.509677438454425 0.7015238744308223 0.0
5.08700163961746 0.6942520173498653 0.0
0.6618054067831788 0.744711158543518 0.0
9.338194560252495 0.7247244951191141 0.0
8.748145972167169 0.7245702544543854 0.0
1.2518533346563352 0.7520681816705693 0.0
8.670946594472724 0.26134941818500357 0.0
1.3290521119500893 0.28736042648228466 0.0
0.6803084909366944 0.2454302540477481 0.0
9.31969146527159 0.22689244122021027 0.0
8.170869163937667 0.7323206631815685 0.0
1.8291222708134738 0.7526194847492466 0.0
8.083191857989219 0.26713568095789475 0.0
1.9167938943744272 0.28439654764394023 0.0
7.486320488516953 0.28310161940262335 0.0
2.5135720133101063 0.2826159736380775 0.0
6.886344730678693 0.2924673333324313 0.0
3.1130797706252866 0.27580600043037373 0.0
6.285884562329321 0.28215459945316645 0.0
3.7124239185658636 0.2703489248845221 0.0
2.42158504932104 0.8109115904499157 0.0
7.578357492763407 0.8091323003929796 0.0
3.020619135839893 0.8063716332381452 0.0
6.979008123710735 0.8182259304642929 0.0
3.6174200971322406 0.8021243711893379 0.0
6.380240213407941 0.8183337530023775 0.0
4.2159915367346095 0.799855712170328 0.0
5.793940832538778 0.8497817774921596 0.0
4.802128799676139 0.8400881088654054 0.0
5.299526122748389 0.18824145026828426 0.0
4.312763851792629 0.2590301638286886 0.0
4.742502114114246 0.23253348442801738 0.0
5.856282328767069 0.24736493361862472 0.0
5.298294536481311 0.7207610578333948 0.0
0.1948314099753882 0.5058391354526506 0.0
9.805168586388982 0.4978516202610243 0.0
9.48699531211397 0.1565019947485698 0.0
0.5130046747694563 0.1673764464346495 0.0
9.56896781383063 0.5028400332519859 0.0
0.43103217071478345 0.5202377010093578 0.0
9.509165455798236 0.830534615077416 0.0
0.49083453553281853 0.841358875691244 0.0
9.823684213995469 0.8253463243771227 0.0
0.1763157847699028 0.8298285206979764 0.0
7.691436244844455 0.18869087991303382 0.0
2.308523425013855 0.19307902163066923 0.0
8.876946165419339 0.181352058666566 0.0
1.1230534516324209 0.20017995979996556 0.0
7.091711084160921 0.19757827105215284 0.0
2.9080519253427797 0.18894949925911037 0.0
6.491821745847314 0.19721994620361216 0.0
3.507572766273345 0.18443486364938882 0.0
1.7127428379887888 0.19433713861810065 0.0
8.287252375949354 0.17890194608778667 0.0
4.107257122326135 0.17973612121610072 0.0
8.578024461518353 0.8176471169418006 0.0
1.4219744015927192 0.8367929290888412 0.0
8.923595597214943 0.8156692439106883 0.0
1.0764041848723387 0.8348687309756884 0.0
0.8417329748184108 0.8326331544418291 0.0
9.158266959440361 0.8156420412594715 0.0
8.346444948104134 0.8196650606766047 0.0
1.6535519566750905 0.8366337605824993 0.0
5.592844815841528 0.5145550734263511 0.0
5.004662364608518 0.5028528633679951 0.0
7.790135560394479 0.8343368857009572 0.0
2.209839965871666 0.8409261539355799 0.0
7.778286883195894 0.5427881361851536 0.0
2.221660711291688 0.5543074554604532 0.0
2.814440435818017 0.8392023045161459 0.0
7.18538577447005 0.8460982337087857 0.0
3.411136872721979 0.8346730328654494 0.0
6.587781819386884 0.8493200620569171 0.0
4.008339044179733 0.8323411151130087 0.0
5.985299456814172 0.8508025013045898 0.0
4.610770931904183 0.8382075970822711 0.0
7.1767289236290654 0.5629595698891374 0.0
2.822919088313422 0.5499351010278877 0.0
6.57666555118133 0.5675779885676673 0.0
3.421283264704557 0.5414272824160835 0.0
5.978993651343757 0.5459903924796641 0.0
4.020717515845706 0.5357062929169633 0.0
[...]
POINT_DATA 386
VECTORS vector double
1.0 0.0 0.0
0.0 0.0 0.0
0.0 0.0 0.0
0.0 0.0 0.0
0.0 0.0 0.0
1.0 0.0 0.0
0.0 0.0 0.0
0.0 0.0 0.0
0.0 0.0 0.0
0.0 0.0 0.0
0.0 0.0 0.0
0.0 0.0 0.0
0.0 0.0 0.0
0.0 0.0 0.0
0.0 0.0 0.0
0.0 0.0 0.0
0.0 0.0 0.0
0.0 0.0 0.0
0.0 0.0 0.0
0.0 0.0 0.0
0.0 0.0 0.0
0.0 0.0 0.0
0.0 0.0 0.0
0.0 0.0 0.0
0.0 0.0 0.0
0.0 0.0 0.0
0.0 0.0 0.0
0.0 0.0 0.0
0.0 0.0 0.0
0.0 0.0 0.0
0.0 0.0 0.0
0.0 0.0 0.0
0.0 0.0 0.0
0.0 0.0 0.0
0.0 0.0 0.0
0.0 0.0 0.0
0.0 0.0 0.0
0.0 0.0 0.0
0.0 0.0 0.0
0.0 0.0 0.0
0.0 0.0 0.0
0.0 0.0 0.0
0.0 0.0 0.0
0.0 0.0 0.0
0.0 0.0 0.0
0.0 0.0 0.0
0.0 0.0 0.0
0.0 0.0 0.0
0.0 0.0 0.0
0.0 0.0 0.0
0.0 0.0 0.0
0.0 0.0 0.0
0.0 0.0 0.0
0.0 0.0 0.0
0.951202015239 0.0925869125433 0.0
1.33443168138 0.00398425515784 0.0
1.34844108048 -0.00119098272466 0.0
1.03844091966 -0.0830745302971 0.0
0.0 0.0 0.0
0.0 0.0 0.0
0.0 0.0 0.0
0.0 0.0 0.0
0.0 0.0 0.0
0.0 0.0 0.0
0.0 0.0 0.0
0.0 0.0 0.0
0.0 0.0 0.0
0.0 0.0 0.0
0.0 0.0 0.0
0.0 0.0 0.0
0.0 0.0 0.0
0.0 0.0 0.0
0.0 0.0 0.0
0.0 0.0 0.0
0.0 0.0 0.0
0.0 0.0 0.0
0.0 0.0 0.0
0.0 0.0 0.0
0.0 0.0 0.0
0.0 0.0 0.0
0.0 0.0 0.0
0.0 0.0 0.0
0.0 0.0 0.0
0.0 0.0 0.0
0.0 0.0 0.0
0.0 0.0 0.0
0.0 0.0 0.0
0.0 0.0 0.0
0.0 0.0 0.0
0.0 0.0 0.0
0.0 0.0 0.0
0.0 0.0 0.0
0.0 0.0 0.0
0.0 0.0 0.0
0.0 0.0 0.0
0.0 0.0 0.0
0.0 0.0 0.0
0.0 0.0 0.0
0.0 0.0 0.0
0.0 0.0 0.0
0.0 0.0 0.0
0.0 0.0 0.0
0.0 0.0 0.0
0.0 0.0 0.0
0.0 0.0 0.0
0.0 0.0 0.0
0.0 0.0 0.0
1.0 0.0 0.0
1.0 0.0 0.0
1.0 0.0 0.0
1.0 0.0 0.0
1.23281718584 -0.00590967698118 0.0
1.36690212146 0.000174204488202 0.0
1.36608897067 -0.013944022204 0.0
1.32989548722 0.0121607517174 0.0
1.35779016088 -0.0311121998995 0.0
1.35996097553 -0.00913950472495 0.0
1.34206623424 -0.0297749989574 0.0
1.33566747452 -0.0373487506108 0.0
1.33769081174 -0.0285962770889 0.0
1.33761050779 -0.0285081685473 0.0
1.34280751534 -0.0120973716308 0.0
1.3451881786 -0.00107318932099 0.0
1.34647926668 0.0144854474372 0.0
1.3273172168 0.0182132934762 0.0
1.33903959639 0.0447443458983 0.0
1.35137031011 0.0161464575961 0.0
1.24487277272 0.0185028347927 0.0
1.12311829225 -0.100569889558 0.0
1.24311972523 0.0366199643637 0.0
1.29286383079 0.00711489221528 0.0
1.22384810533 0.0203822469772 0.0
1.29662982099 -0.0136280446634 0.0
1.28355528559 -0.0194769581779 0.0
1.28428296832 -0.0327554181348 0.0
1.30614947216 -0.018315164008 0.0
1.30056106366 -0.0266727800733 0.0
1.28448661511 -0.0345702872788 0.0
1.30808725227 5.52855269028e-06 0.0
1.25220713691 0.00420304360906 0.0
1.31397588559 0.0211827186416 0.0
1.28822982812 -0.022489826157 0.0
1.3069949701 -0.0196955383269 0.0
1.27952549684 0.00945514735735 0.0
1.31416046597 0.0434611584753 0.0
1.30335424619 -0.00969890673655 0.0
1.26825343766 0.0370142352832 0.0
1.24320756868 0.0101960678527 0.0
1.27582754152 0.0179678356618 0.0
1.26714680989 -0.0052582857179 0.0
1.2699728194 -0.0375523508131 0.0
1.23659722552 -0.0127587446358 0.0
1.26487173279 -0.00982832952431 0.0
1.23678908184 -0.020361719455 0.0
1.24806126372 -0.0274315640982 0.0
1.13354056026 0.108895210666 0.0
1.26794422936 0.00542930391062 0.0
1.18828917079 0.0178257005337 0.0
1.19203229717 0.0226514554248 0.0
1.24371665366 0.0320683325306 0.0
1.23561684997 0.0113453933289 0.0
1.17689547496 -0.035773689146 0.0
1.19039992328 0.00213962966643 0.0
1.19022601818 -0.0139173936668 0.0
1.17845921035 0.00238286854877 0.0
1.17184952231 -0.00299677683418 0.0
1.18667372694 0.0193823523886 0.0
1.17701805085 0.0566342906293 0.0
1.14909038654 0.00757361195141 0.0
1.19340051858 -0.0321450675852 0.0
1.1980613214 -0.0114131652344 0.0
1.16376232129 -0.0129909243528 0.0
1.17444184504 -0.0225796385588 0.0
1.16195883931 -0.0187148018721 0.0
1.18235574569 -0.0372985186959 0.0
1.15311119754 -0.0138502423572 0.0
1.187569658 -0.0291037720511 0.0
1.13662847957 0.0204624871535 0.0
1.18727560899 -0.0105810971084 0.0
1.05047254318 -0.0207753481782 0.0
1.05701722873 -0.0236558072524 0.0
1.00199158037 -0.0183656883554 0.0
1.11114791431 -0.0202278622067 0.0
0.972016093223 -0.00815015991783 0.0
1.14759371886 -0.00563516880113 0.0
0.989965174201 0.00805859524879 0.0
1.03561109859 0.0161930021519 0.0
0.958820773189 0.0270251027781 0.0
0.94016538442 0.0072944585068 0.0
1.1647827411 0.0126677442216 0.0
1.00828090097 0.00508576417653 0.0
0.969657311926 0.0442822838583 0.0
1.19537382873 0.0109163490882 0.0
1.00031695973 -0.00432049049702 0.0
1.38029821155 0.00281358073201 0.0
0.965856171585 0.00803369466371 0.0
1.05211444491 0.0775903458464 0.0
1.38714679294 0.00940028294002 0.0
1.12616854231 -0.00284524151733 0.0
0.829436273612 0.000194091435751 0.0
1.07381682853 -0.0575624088916 0.0
0.820435598458 -0.0428849043852 0.0
1.15733982966 -0.165246738061 0.0
0.966426521616 -0.025988232212 0.0
0.937777017945 -0.011703225658 0.0
1.03473676313 -0.0151983858014 0.0
0.975024678594 0.0356302790849 0.0
0.923717724081 -0.0278420871421 0.0
0.990757636105 -0.0110710416076 0.0
0.876596552595 -0.0164503032006 0.0
1.02282643641 -0.00034600068879 0.0
0.91018966018 0.00938151545271 0.0
0.998796952029 -0.0210251643415 0.0
1.01181856934 0.0141460928688 0.0
0.886165566527 -0.0185592837189 0.0
0.997562678209 0.0140473422518 0.0
0.873495983621 0.00551301439934 0.0
0.996700783699 -0.0102820156966 0.0
1.00982803187 0.000365678478699 0.0
0.873435506439 -0.00916536393314 0.0
0.899927836897 -0.00572950276123 0.0
1.00448355399 -0.0113368800667 0.0
1.32590849447 0.00356669443551 0.0
1.33015945845 0.0475053444906 0.0
0.934010686335 -0.0330074461821 0.0
0.967571726715 0.00189674979439 0.0
1.37102941906 -0.0333030485905 0.0
1.38336652195 -0.0247145969895 0.0
0.914353008092 -0.0119594842666 0.0
0.998482399236 -0.0204322130882 0.0
0.869389799136 -0.00789852498006 0.0
1.04805751986 -0.010262714069 0.0
0.865586154875 0.008413355162 0.0
1.05191874721 0.0170020341695 0.0
0.924881349262 0.0186662540518 0.0
1.36571869863 -0.0296518517416 0.0
1.37081287626 -0.0321310443187 0.0
1.37346460271 -0.0079200534681 0.0
1.36920093563 -0.0200630321028 0.0
1.34632934406 0.0224251808356 0.0
1.37114015524 0.00410420074295 0.0
1.36333149222 0.0419737746785 0.0
1.37809750056 -0.0173903828568 0.0
1.36974889143 0.0197877447383 0.0
1.32845532272 0.0177918803583 0.0
1.30001733755 0.0164377153385 0.0
1.38849817091 -0.00768746472199 0.0
1.38162436649 -0.00536160749251 0.0
1.36292578273 0.0310224764356 0.0
1.38498448136 0.00562185408565 0.0
1.38675315618 -0.0264560034173 0.0
1.38066267598 -0.00926483224534 0.0
1.36570308509 -0.0346106035317 0.0
1.36461591813 0.0100576425857 0.0
1.35006939666 0.0153592141454 0.0
1.36214111604 -0.0119943242052 0.0
1.35810720039 -0.0258090458442 0.0
1.36602887395 -0.0200284379939 0.0
1.35213474131 -0.0400500715276 0.0
0.889560693665 0.00726567325288 0.0
0.856444867307 0.00029390422466 0.0
1.06210789607 0.0160787270424 0.0
0.995972944558 0.0132902632576 0.0
0.93694660156 -0.0390719668802 0.0
0.879610703668 -0.0141132538595 0.0
1.04014805022 -0.00383839159045 0.0
0.930203389172 -0.0187560662654 0.0
0.979600609758 -0.0122198143831 0.0
0.946390611466 0.0619290613829 0.0
0.91170874685 -0.039283965295 0.0
1.13911858254 0.154552501814 0.0
0.958151252876 -0.0210254320477 0.0
1.02328465033 0.0113669581963 0.0
0.991671879204 0.02194147591 0.0
1.29377332225 -0.00563030318136 0.0
1.20869864011 -0.0721830544036 0.0
0.820343077433 0.00841378395589 0.0
0.930974222511 0.000373537742252 0.0
0.89176135929 -0.00495493257821 0.0
0.81732588216 -0.0205736429244 0.0
0.753040343666 0.0421108212495 0.0
0.870063234863 -0.00664304640344 0.0
0.847527971431 -0.00832902744657 0.0
0.879024132895 -0.0279802761784 0.0
0.791424178383 -0.00663603172312 0.0
0.928857529849 -0.0213130086472 0.0
1.32155936517 -0.00657549433325 0.0
1.3250826798 0.0330088108522 0.0
0.940221707392 -0.00873786640056 0.0
1.31697846321 -0.0197884161696 0.0
1.34162180198 -0.00428136069892 0.0
0.912732625825 0.00992114689774 0.0
1.06196004919 0.137544423862 0.0
1.34073671856 -0.0353029162447 0.0
1.31851917687 -0.0275434565616 0.0
1.02583445146 -0.00565914611877 0.0
0.903474702406 0.00794209753633 0.0
1.33293474933 -0.0349437745833 0.0
1.3155648084 -0.0262105648976 0.0
1.31286276165 0.000934865924503 0.0
1.33005526422 -0.0184152080695 0.0
0.994250306758 0.0429453812813 0.0
1.31993314842 0.00463207021586 0.0
1.24774868422 0.0396292185329 0.0
1.25421615741 0.0150105794491 0.0
1.28956946883 -0.0111039448135 0.0
1.26676695706 0.0020035105301 0.0
1.27866168384 0.0501551908476 0.0
1.27005501403 0.00845682740501 0.0
1.28039143771 0.0189463737355 0.0
1.25800396589 -0.035734798582 0.0
1.25698698692 -0.0208988331955 0.0
1.28205727747 -0.0025950410983 0.0
1.26104682077 -0.0152628325351 0.0
1.25491215538 -0.0265776789139 0.0
1.2638892499 -0.0261581619136 0.0
1.28955619077 -0.0157038480267 0.0
1.25297382419 0.0127401883747 0.0
1.27888747751 0.0255831232532 0.0
1.28680589429 -0.0174260383891 0.0
1.28598065998 -0.0306264069376 0.0
1.27999870546 0.00522212453803 0.0
1.29099498955 -0.0355628243874 0.0
1.23811123717 -0.019688559723 0.0
1.29298993018 0.00607601087327 0.0
1.26127771019 -0.00176637049032 0.0
1.28192808368 -0.00286442581047 0.0
1.25209388936 -0.0206848489213 0.0
1.26945876588 -0.0250021071901 0.0
1.22835377704 0.0747814538768 0.0
1.31417482783 0.0157947093067 0.0
1.25085142521 -0.0241456019556 0.0
1.25845383934 -0.03626320736 0.0
1.24677299096 0.00563225640366 0.0
1.24706115144 0.0257526161983 0.0
1.06981731025 -0.122246495065 0.0
1.29433149179 0.00680824273884 0.0
1.29163913746 0.0573587537182 0.0
1.3533155242 0.0180055602154 0.0
1.35152438389 0.0207244531483 0.0
1.28482455737 0.0107673694408 0.0
1.01463197676 0.0872922088282 0.0
0.833529736068 -0.00066254716462 0.0
1.09400249725 0.142310935619 0.0
1.01812486431 -0.0951248654266 0.0
1.27554862754 0.00544541827365 0.0
1.30293468434 -0.00107085675753 0.0
1.26359191345 0.0519915543014 0.0
1.34956806209 -0.0223717550211 0.0
1.34792079239 0.041272815395 0.0
0.829274932038 0.0954017121452 0.0
0.718607781758 0.0372785352931 0.0
1.14761768356 -0.137638011679 0.0
0.910146805835 -0.0603821948752 0.0
1.33981570539 -0.0381581298608 0.0
1.35999580308 -0.000244831622386 0.0
0.759841775425 0.035210674238 0.0
0.804106448357 0.0111998935264 0.0
0.582579900481 -0.0207129361432 0.0
1.3589426084 -0.0197876541318 0.0
1.33900957785 -0.0454684527946 0.0
1.31620643974 0.0300670476816 0.0
1.30774864739 0.0334411975928 0.0
1.3529175824 -0.0126526724177 0.0
1.33669670738 -0.0385570665819 0.0
1.35305016911 0.00779576673058 0.0
1.335202411 0.0109859177028 0.0
0.771712799932 -2.50215363291e-06 0.0
0.648292448056 -0.0258762973769 0.0
1.34592221709 0.0274132419852 0.0
0.70166014664 -0.00656957122199 0.0
0.713901350986 -0.0246696956247 0.0
0.639450050839 0.00280540693021 0.0
0.765331971103 -0.0212053756637 0.0
0.862193318002 -0.00704826210972 0.0
0.65480178513 -0.0182018660082 0.0
0.6787185942 -0.00562649991156 0.0
0.832586768278 -0.0019513575175 0.0
0.694693666938 0.0418548856117 0.0
0.818677873478 -0.0253920658211 0.0
0.723732907644 -0.0129416691271 0.0
0.831399178268 -0.0120321015469 0.0
0.581836405399 0.0297876698632 0.0
1.18458083864 -0.0864011875033 0.0
0.759850596493 0.0128817139416 0.0
0.78031899422 0.0318894097986 0.0

SCALARS scalar1 double
LOOKUP_TABLE default
2.97809209129
7.6373433276
5.74953909151
6.11545439916
-6.71777602744
-2.50324123224
11.0880461756
10.2100704363
8.17836656032
7.62404824586
7.10127238146
7.58151321889
7.70861089579
7.15327473721
7.70020328092
7.09312625697
6.73092417298
6.58768644785
6.60590230051
6.17049515452
5.94140967038
5.91782336577
5.67228152776
5.57359853013
5.67151755715
5.66373285867
5.7013125852
6.26141682247
6.8551466519
7.05774259435
9.12666472511
5.70072624901
9.53758136407
7.92880941088
8.40292320215
8.48950897158
7.84254170521
7.909414644
8.34316411037
7.66122505926
7.42465346916
7.51358051138
6.83882820128
6.42331711747
6.25134043792
6.1398593955
5.3711589391
5.36771818979
5.26455462614
5.14816214285
5.18306446898
5.21586919759
5.939448159
5.74150998514
3.07640149608
0.636147111632
-0.563037348661
-2.6241461344
-7.5339997233
-7.61536115825
-7.52542393834
-7.08417851264
-6.99804508994
-7.10201838627
-7.90958515982
-6.98175349443
-6.75574046735
-7.08629277821
-6.3679779123
-5.94742961249
-6.12789873289
-5.68025943366
-5.15447712248
-5.26333007835
-5.20823511837
-4.58859219424
-4.8689878224
-6.5916913963
-4.64800670285
-5.82431905883
-5.801571686
-5.90450515614
-6.16659753236
-5.40786315746
-8.254123482
-7.25666925651
-6.81710716964
-7.036470939
-7.57277245115
-6.8972964841
-6.82321832502
-7.14150387107
-6.40221216455
-6.27580287857
-6.23710895902
-5.61855185165
-5.62817934794
-5.40960274991
-5.06668563729
-5.40518286946
-5.65968545614
-5.33466567047
-5.92796453027
-5.93971346858
-6.8752707123
-9.40655887615
-10.6829598445
2.64559235967
-0.0696150204984
0.0115310759028
-3.1994144735
0.0367667899044
0.12089310595
0.205562811535
0.361194009814
0.208036910078
0.355790162438
0.468196139897
0.350614487903
0.438033402526
0.294035304708
0.402498001181
0.19519898778
0.30545454744
-0.0321983347121
-0.11099287011
-0.185148789304
1.7378449637
-0.835136323653
-1.02168489132
-0.77039666053
-1.13459850101
-0.760290388598
-0.970862457522
-0.871565314134
-1.03171283085
-0.849960528882
-0.851716854647
1.3149860295
0.801510112227
-1.00934632484
-0.88254959365
1.29197842344
0.999990818135
-0.319454073238
-0.829167946295
1.27642756071
1.50050156121
0.60548133978
1.14098327158
1.20678204783
1.45573747207
0.880903579019
1.33120097698
1.08416484142
0.864740667238
-1.24468229179
-1.26091901448
-1.30759238814
0.642258887789
0.613278670659
1.04509021925
2.23939179794
2.27538951322
1.58869837531
-1.62945373447
-2.08313845799
-2.07821872888
-1.94947323976
2.0851044303
1.65681445957
-1.7345280192
-2.28367966269
-1.82170443242
-1.94815708976
-2.00989884696
-1.64358556496
-2.36895136923
-1.51881909674
2.65537493212
2.654554608
3.01631533913
2.35268403167
3.318076477
2.21890317752
3.24662061085
3.22299670276
3.61342584369
-2.96594363959
-1.68476882983
-2.16670484226
-2.30632752127
0.804699057097
0.0480020306464
-0.0571533620596
-3.25572506664
-3.24191530028
-0.026242187517
0.0311141453172
3.97561257248
2.88050567787
3.83425211125
-0.559767285068
-3.00445714283
-3.45002304012
-2.64937578955
-3.36779860073
-3.25561253572
-2.96985529346
-3.65328603505
-2.68821500418
-3.83053025065
-2.83220026224
-2.70206690576
3.80130952168
2.98802263046
3.83424406305
2.81185516507
2.88597318596
3.81342871737
3.73545784634
2.84746414595
-0.159762635884
-0.232870523158
3.36527021706
3.10072857151
0.112408188397
0.215782404123
3.48108661318
3.19032412951
3.78025050599
3.04738635231
3.85440930467
3.08483025316
3.76424478654
0.139943654557
0.203413706939
0.0746974917833
0.122984633843
-0.00103713618586
0.0594758856553
-0.0578587636633
0.021827278825
0.256551547549
0.18418113806
0.136005052871
-0.00186951110965
-0.05235645509
0.0604235443903
0.191559444302
0.00652562587945
0.221907927029
0.0721563331037
0.162697585607
0.0470597689141
0.210233169469
0.127934111892
0.278838216871
0.167229520532
3.7001004447
3.82385181655
2.87530976761
3.1454034348
3.46532996092
3.66781547565
2.92553948072
3.41907770387
3.16138805869
-2.98749481303
-2.96566459312
0.135028501571
-3.56937810712
-2.64364958076
-3.3656054418
1.35586418955
-0.332166278269
-4.19304008438
-3.28390707235
-3.44056771897
-4.03202798263
-4.35094596084
-3.63693790759
-3.63307146776
-3.62282523149
-3.93403203212
-3.33455664731
-0.729571996649
-0.279860388784
-3.26692214625
-0.721729629203
-0.670520410455
-3.06787678647
3.25350249105
-0.607979987144
-0.636413160137
3.46135466438
-3.11000105584
-0.530742468195
-0.63688876299
-0.767037359191
-0.526193072612
3.43257498501
-0.577819027392
-0.87701656513
-0.924788085537
1.11344975696
1.04249594818
0.952984274801
1.35309656166
0.612504595315
1.35176239785
1.16974931126
0.996782233826
1.40062434787
1.29573669297
1.16300009132
1.31878737503
0.832639720439
1.56168125349
1.09430208749
1.03311023148
0.923995785475
1.22933661687
0.677683017784
1.07147053966
1.721002746
0.64698644529
1.60390741184
0.870887473882
0.389722555984
-0.795195639335
1.44385424386
1.09281820196
-0.677251811774
-0.840602282856
3.60021691168
0.595314641638
0.649902110087
-0.0244314003369
0.00845471976555
-1.17735218457
1.29841637461
-4.24162680416
-3.57770453737
-1.31898031321
1.48061121104
-0.747423051942
0.0864054197885
-0.546975418099
-0.183824344141
-3.7901608076
4.52789375544
3.63862336602
-3.6230044296
-0.50495773931
-0.400175610122
-4.21843412956
-4.06654328325
-4.61069804718
-0.334439670724
-0.392914390107
-0.686397218467
-0.581671386602
-0.337479360725
-0.41332054614
-0.370994561963
-0.522689715738
-4.10684097412
-4.30636052159
-0.455396983894
-4.25346939153
-4.16631138082
-4.43995180359
-4.09482355023
4.24024636085
4.43823074547
4.47995356361
4.19475879713
-4.36427933332
-3.97880111379
4.44819480742
4.28325603039
4.81475502367
1.0083081372
-4.47691883616
-4.31762293463

SCALARS scalar2 double
LOOKUP_TABLE default
2.97809209129
7.6373433276
5.74953909151
6.11545439916
-6.71777602744
-2.50324123224
11.0880461756
10.2100704363
8.17836656032
7.62404824586
7.10127238146
7.58151321889
7.70861089579
7.15327473721
7.70020328092
7.09312625697
6.73092417298
6.58768644785
6.60590230051
6.17049515452
5.94140967038
5.91782336577
5.67228152776
5.57359853013
5.67151755715
5.66373285867
5.7013125852
6.26141682247
6.8551466519
7.05774259435
9.12666472511
5.70072624901
9.53758136407
7.92880941088
8.40292320215
8.48950897158
7.84254170521
7.909414644
8.34316411037
7.66122505926
7.42465346916
7.51358051138
6.83882820128
6.42331711747
6.25134043792
6.1398593955
5.3711589391
5.36771818979
5.26455462614
5.14816214285
5.18306446898
5.21586919759
5.939448159
5.74150998514
3.07640149608
0.636147111632
-0.563037348661
-2.6241461344
-7.5339997233
-7.61536115825
-7.52542393834
-7.08417851264
-6.99804508994
-7.10201838627
-7.90958515982
-6.98175349443
-6.75574046735
-7.08629277821
-6.3679779123
-5.94742961249
-6.12789873289
-5.68025943366
-5.15447712248
-5.26333007835
-5.20823511837
-4.58859219424
-4.8689878224
-6.5916913963
-4.64800670285
-5.82431905883
-5.801571686
-5.90450515614
-6.16659753236
-5.40786315746
-8.254123482
-7.25666925651
-6.81710716964
-7.036470939
-7.57277245115
-6.8972964841
-6.82321832502
-7.14150387107
-6.40221216455
-6.27580287857
-6.23710895902
-5.61855185165
-5.62817934794
-5.40960274991
-5.06668563729
-5.40518286946
-5.65968545614
-5.33466567047
-5.92796453027
-5.93971346858
-6.8752707123
-9.40655887615
-10.6829598445
2.64559235967
-0.0696150204984
0.0115310759028
-3.1994144735
0.0367667899044
0.12089310595
0.205562811535
0.361194009814
0.208036910078
0.355790162438
0.468196139897
0.350614487903
0.438033402526
0.294035304708
0.402498001181
0.19519898778
0.30545454744
-0.0321983347121
-0.11099287011
-0.185148789304
1.7378449637
-0.835136323653
-1.02168489132
-0.77039666053
-1.13459850101
-0.760290388598
-0.970862457522
-0.871565314134
-1.03171283085
-0.849960528882
-0.851716854647
1.3149860295
0.801510112227
-1.00934632484
-0.88254959365
1.29197842344
0.999990818135
-0.319454073238
-0.829167946295
1.27642756071
1.50050156121
0.60548133978
1.14098327158
1.20678204783
1.45573747207
0.880903579019
1.33120097698
1.08416484142
0.864740667238
-1.24468229179
-1.26091901448
-1.30759238814
0.642258887789
0.613278670659
1.04509021925
2.23939179794
2.27538951322
1.58869837531
-1.62945373447
-2.08313845799
-2.07821872888
-1.94947323976
2.0851044303
1.65681445957
-1.7345280192
-2.28367966269
-1.82170443242
-1.94815708976
-2.00989884696
-1.64358556496
-2.36895136923
-1.51881909674
2.65537493212
2.654554608
3.01631533913
2.35268403167
3.318076477
2.21890317752
3.24662061085
3.22299670276
3.61342584369
-2.96594363959
-1.68476882983
-2.16670484226
-2.30632752127
0.804699057097
0.0480020306464
-0.0571533620596
-3.25572506664
-3.24191530028
-0.026242187517
0.0311141453172
3.97561257248
2.88050567787
3.83425211125
-0.559767285068
-3.00445714283
-3.45002304012
-2.64937578955
-3.36779860073
-3.25561253572
-2.96985529346
-3.65328603505
-2.68821500418
-3.83053025065
-2.83220026224
-2.70206690576
3.80130952168
2.98802263046
3.83424406305