# vtk DataFile Version 2.0
2D Simulation Python
ASCII
DATASET UNSTRUCTURED_GRID
FIELD FieldData 1
NODES 1 2 int
386 659

POINTS 386 double
0.0 1.0 0.0
1.725 1.0419874499744548 0.0
8.275 0.9580125500255449 0.0
10.0 1.0 0.0
10.0 -2.4868095232765763e-17 0.0
0.0 0.0 0.0
0.1916666666663293 1.012109354189683 0.0
0.3833333333324708 1.0235196179223292 0.0
0.574999999998553 1.0335720602398228 0.0
0.7666666666645966 1.041686339169849 0.0
0.9583333333312576 1.047394005703765 0.0
1.149999999998384 1.0503655480324747 0.0
1.341666666665662 1.0504294147377629 0.0
1.533333333332819 1.0475819187027526 0.0
1.92348484848444 1.0336445035462325 0.0
2.121969696968978 1.0232192927124677 0.0
2.320454545453434 1.0113570356559707 0.0
2.518939393937826 0.998791889610008 0.0
2.717424242422235 0.9863015137344397 0.0
2.915909090906411 0.9746589396497864 0.0
3.1143939393908 0.9645847283704532 0.0
3.312878787875129 0.9567023746533901 0.0
3.511363636359531 0.9514997187948342 0.0
3.709848484843827 0.9492987541062274 0.0
3.90833333332816 0.9502356986899558 0.0
4.106818181812215 0.954252564876378 0.0
4.305303030296804 0.9611007480912123 0.0
4.503787878781365 0.9703564130375109 0.0
4.702272727265711 0.9814467249388247 0.0
4.900757575750005 0.9936853023870738 0.0
5.099242424235156 1.0063146976119872 0.0
5.297727272720327 1.0185532750603468 0.0
5.496212121205663 1.0296435869618168 0.0
5.694696969690998 1.0388992519082882 0.0
5.89318181817668 1.045747435123315 0.0
6.09166666666213 1.0497643013099218 0.0
6.290151515147423 1.0507012458938016 0.0
6.488636363633031 1.048500281205306 0.0
6.687121212118713 1.0432976253468147 0.0
6.885606060604342 1.0354152716297693 0.0
7.084090909089381 1.0253410603504463 0.0
7.282575757574369 1.0136984862657685 0.0
7.481060606059355 1.0012081103901718 0.0
7.679545454544343 0.9886429643441678 0.0
7.878030303029329 0.9767807072876283 0.0
8.076515151514705 0.9663554964538079 0.0
8.46666666666447 0.952418081297308 0.0
8.658333333329285 0.9495705852622743 0.0
8.84999999999549 0.9496344519674761 0.0
9.041666666661694 0.9526059942960728 0.0
9.233333333327899 0.9583136608298785 0.0
9.42499999999549 0.9664279397598918 0.0
9.616666666663775 0.9764803820774589 0.0
9.808333333331985 0.9878906458102125 0.0
10.0 0.7999999999999998 0.0
10.0 0.6000000000013869 0.0
10.0 0.4000000000016644 0.0
10.0 0.2000000000008322 0.0
9.799999999999999 -0.01262495399030009 0.0
9.6 -0.024456635690056582 0.0
9.399999999999999 -0.03475161702419259 0.0
9.2 -0.04286302645319144 0.0
8.999999999999998 -0.04828119429095205 0.0
8.799999999999997 -0.05066567712560038 0.0
8.599999999999998 -0.04986664913112116 0.0
8.399999999999997 -0.045934316175026885 0.0
8.199999999999998 -0.039115761199057984 0.0
7.999999999999997 -0.029839419089245537 0.0
7.799999999999997 -0.01868815653634895 0.0
7.599999999999998 -0.006362648378041652 0.0
7.399999999999997 0.006362648378042044 0.0
7.199999999999998 0.018688156536349237 0.0
6.999999999999997 0.029839419089245874 0.0
6.799999999999997 0.039115761199058234 0.0
6.599999999999998 0.04593431617502704 0.0
6.399999999999997 0.049866649131121286 0.0
6.199999999999998 0.050665677125600356 0.0
5.999999999999997 0.04828119429095194 0.0
5.799999999999998 0.042863026453191316 0.0
5.599999999999998 0.03475161702419244 0.0
5.399999999999999 0.02445663569005647 0.0
5.199999999999998 0.012624953990299885 0.0
4.999999999999999 -1.0261231591450835e-16 0.0
4.799999999999999 -0.012624953990300034 0.0
4.599999999999999 -0.024456635690056593 0.0
4.399999999999999 -0.03475161702419262 0.0
4.199999999999999 -0.04286302645319143 0.0
3.999999999999999 -0.048281194290952026 0.0
3.799999999999999 -0.050665677125600356 0.0
3.599999999999999 -0.04986664913112121 0.0
3.399999999999998 -0.04593431617502696 0.0
3.199999999999998 -0.039115761199057984 0.0
2.999999999999999 -0.029839419089245634 0.0
2.799999999999998 -0.01868815653634905 0.0
2.599999999999998 -0.006362648378041637 0.0
2.399999999999999 0.006362648378041853 0.0
2.199999999999999 0.01868815653634923 0.0
1.999999999999998 0.029839419089245818 0.0
1.799999999999999 0.03911576119905817 0.0
1.6 0.04593431617502698 0.0
1.4 0.04986664913112122 0.0
1.199999999999999 0.050665677125600356 0.0
0.9999999999999982 0.048281194290951936 0.0
0.7999999999999989 0.042863026453191365 0.0
0.6000000000000014 0.0347516170241926 0.0
0.3999999999999986 0.02445663569005644 0.0
0.1999999999999993 0.012624953990299921 0.0
0.0 0.1999999999995579 0.0
0.0 0.3999999999989749 0.0
0.0 0.5999999999989468 0.0
0.0 0.7999999999994734 0.0
0.6588311481024225 0.560059492786878 0.0
9.341168261683407 0.5317824968037804 0.0
8.741466716855722 0.5485861319822258 0.0
1.258529896036135 0.5861429159554036 0.0
8.162887566183251 0.5587091913949225 0.0
1.8370955836078158 0.5866552814400972 0.0
2.430390995008467 0.5997134341068547 0.0
7.569523356367789 0.5956817942951408 0.0
3.03043973711384 0.589429856161125 0.0
6.969068680330989 0.6128939732492389 0.0
3.628614047573453 0.5805583392756388 0.0
6.368014786091669 0.6114328720586368 0.0
4.229361544695186 0.5739315059880353 0.0
5.795151052811267 0.5445945263652238 0.0
4.802454724031067 0.5235116597057682 0.0
5.298817078184973 0.5279034693960971 0.0
9.677460276088864 0.6910346650423995 0.0
0.32253957116496523 0.7099421071424737 0.0
4.530497339704642 0.3257530260589539 0.0
3.9187808042993497 0.3505010958316927 0.0
6.067986708952356 0.3610186720059958 0.0
3.319363980751292 0.3573376427235952 0.0
6.679690623843972 0.3911809423864078 0.0
7.87902755550542 0.3573295880958809 0.0
2.1209384407614142 0.3773253178992558 0.0
2.720063077393729 0.36922949286436846 0.0
7.279755311611304 0.3810470941055273 0.0
9.0372922488163 0.6517650639876988 0.0
0.9627064870468454 0.6931832322441144 0.0
1.5320482581888095 0.38090348136768426 0.0
8.467945049526154 0.33959562457466547 0.0
8.458330376320507 0.6591756944072172 0.0
1.5416631703338157 0.7006281529282888 0.0
0.9793775656987244 0.38590669254164667 0.0
9.02062101944145 0.34460871521167946 0.0
4.5271719690111025 0.677142616228249 0.0
3.9213617890122756 0.6785329564119916 0.0
6.069707344522379 0.7135951818960261 0.0
2.118332868322819 0.7022674908303931 0.0
7.881636260541841 0.6813473217754176 0.0
3.323314747261489 0.6846916272374075 0.0
6.675590907555726 0.7216447803102863 0.0
2.7253250983426396 0.6974826364769492 0.0
7.274502792252206 0.7098721975312277 0.0
0.33283363380605085 0.31326009735736116 0.0
9.667166198321066 0.2939670063256323 0.0
5.581331354392766 0.33786753223784194 0.0
5.017207887915196 0.3222002204171299 0.0
5.509462397112786 0.7089227715831864 0.0
5.087382086945338 0.697233619969798 0.0
0.661888358460405 0.7541512577598705 0.0
9.338111200497714 0.7168805306969891 0.0
8.747650389749062 0.7149300453128896 0.0
1.2523471222929405 0.7650158372748186 0.0
8.670414253472481 0.2508053343634027 0.0
1.3295824490690538 0.3012475945342745 0.0
0.6803904789611721 0.257131267557369 0.0
9.319609081811148 0.21664928737402755 0.0
8.169943596920069 0.7260235978110966 0.0
1.8300442124200247 0.7635685864188292 0.0
8.082276017217701 0.26107809955534306 0.0
1.9177072711409004 0.2950196410754059 0.0
7.485216435705898 0.28582622545233366 0.0
2.514695737247526 0.2851519143213832 0.0
6.885193648464619 0.3035183449787265 0.0
3.1143635502306686 0.2701137943475655 0.0
6.284958807865456 0.29682940536342955 0.0
3.7137505627903784 0.26079678390886973 0.0
2.4224193349506002 0.8152457202775415 0.0
7.577531326098469 0.8087484491542295 0.0
3.021573933159222 0.7954306087909171 0.0
6.9781314334343865 0.833248761112889 0.0
3.6184300114037775 0.7826398709436011 0.0
6.379494120450883 0.8414204971277665 0.0
4.216861514132798 0.782989427396892 0.0
5.793606329610521 0.8721922958096223 0.0
4.802563730030029 0.834763214117579 0.0
5.299577660711302 0.19829603771855123 0.0
4.313849931063188 0.25163773747961016 0.0
4.743187142517712 0.2295502786828851 0.0
5.855738087685486 0.2634176089057448 0.0
5.298369643339872 0.7272122281273825 0.0
0.1948332030355998 0.506903302377831 0.0
9.805166693032323 0.49733764843589845 0.0
9.486969018701126 0.14241023006669848 0.0
0.5130307912424154 0.18223804013301104 0.0
9.568935090963484 0.5022881851300874 0.0
0.43106462004221063 0.5220706094578413 0.0
9.509144418790761 0.8172557107605691 0.0
0.49085540725030985 0.8554108230427606 0.0
9.823686843269904 0.8208092038907361 0.0
0.17631310726933197 0.8346561144692651 0.0
7.690700664863386 0.18493882091718755 0.0
2.309263894546526 0.2003704711342882 0.0
8.87667939279597 0.1600447073915826 0.0
1.1233192457616723 0.22348692885031862 0.0
7.090904415064042 0.21077076322563676 0.0
2.9089143093828334 0.17953501520818935 0.0
6.491095416837003 0.22087817580468683 0.0
3.5085043271835668 0.1643477632721655 0.0
1.7132982696503554 0.2152287153216025 0.0
8.286694896612971 0.16092697555041144 0.0
4.108099621208641 0.1606003362289752 0.0
8.577580678552293 0.7969509900365275 0.0
1.4224164676783484 0.8601029053401179 0.0
8.923348423928596 0.7947481603428006 0.0
1.076650484954027 0.8577605787732419 0.0
0.8418566738639771 0.8530750220434264 0.0
9.158142781597169 0.7966748932022434 0.0
8.345873753578065 0.8012947278648247 0.0
1.6541207980190173 0.8580115115346904 0.0
5.5924578861802665 0.5183767530996004 0.0
5.005249808141126 0.5049603837664307 0.0
7.7894297157803996 0.8275039113444407 0.0
2.2105465768664154 0.8511658241789624 0.0
7.7769127972547745 0.5452610981510713 0.0
2.223037659961696 0.5584658110549426 0.0
2.815249205984561 0.8316678991504001 0.0
7.1846139409933265 0.857262758241559 0.0
3.412028062773093 0.8139923454917751 0.0
6.58705416588423 0.8733934985041547 0.0
4.009179162396716 0.8102899722832665 0.0
5.984843356278175 0.8759121779060232 0.0
4.611330180969857 0.8271231525994426 0.0
7.175212009584197 0.5672587530488946 0.0
2.82451315318902 0.5527662503912063 0.0
6.575241935127862 0.5727973909439826 0.0
3.4230355532412813 0.5428967412178339 0.0
5.978053775466256 0.5500577211183363 0.0
4.022362571789659 0.5364769611160483 0.0
4.619545551448834 0.5226249480181446 0.0
8.54903660002147 0.5226087285567999 0.0
[...]
POINT_DATA 386
VECTORS vector double
1.0 0.0 0.0
0.0 0.0 0.0
0.0 0.0 0.0
0.0 0.0 0.0
0.0 0.0 0.0
1.0 0.0 0.0
0.0 0.0 0.0
0.0 0.0 0.0
0.0 0.0 0.0
0.0 0.0 0.0
0.0 0.0 0.0
0.0 0.0 0.0
0.0 0.0 0.0
0.0 0.0 0.0
0.0 0.0 0.0
0.0 0.0 0.0
0.0 0.0 0.0
0.0 0.0 0.0
0.0 0.0 0.0
0.0 0.0 0.0
0.0 0.0 0.0
0.0 0.0 0.0
0.0 0.0 0.0
0.0 0.0 0.0
0.0 0.0 0.0
0.0 0.0 0.0
0.0 0.0 0.0
0.0 0.0 0.0
0.0 0.0 0.0
0.0 0.0 0.0
0.0 0.0 0.0
0.0 0.0 0.0
0.0 0.0 0.0
0.0 0.0 0.0
0.0 0.0 0.0
0.0 0.0 0.0
0.0 0.0 0.0
0.0 0.0 0.0
0.0 0.0 0.0
0.0 0.0 0.0
0.0 0.0 0.0
0.0 0.0 0.0
0.0 0.0 0.0
0.0 0.0 0.0
0.0 0.0 0.0
0.0 0.0 0.0
0.0 0.0 0.0
0.0 0.0 0.0
0.0 0.0 0.0
0.0 0.0 0.0
0.0 0.0 0.0
0.0 0.0 0.0
0.0 0.0 0.0
0.0 0.0 0.0
0.906723243149 0.0947007691134 0.0
1.38581895651 0.00475285446738 0.0
1.4196518288 -0.00248392580007 0.0
1.01173650747 -0.0847539860373 0.0
0.0 0.0 0.0
0.0 0.0 0.0
0.0 0.0 0.0
0.0 0.0 0.0
0.0 0.0 0.0
0.0 0.0 0.0
0.0 0.0 0.0
0.0 0.0 0.0
0.0 0.0 0.0
0.0 0.0 0.0
0.0 0.0 0.0
0.0 0.0 0.0
0.0 0.0 0.0
0.0 0.0 0.0
0.0 0.0 0.0
0.0 0.0 0.0
0.0 0.0 0.0
0.0 0.0 0.0
0.0 0.0 0.0
0.0 0.0 0.0
0.0 0.0 0.0
0.0 0.0 0.0
0.0 0.0 0.0
0.0 0.0 0.0
0.0 0.0 0.0
0.0 0.0 0.0
0.0 0.0 0.0
0.0 0.0 0.0
0.0 0.0 0.0
0.0 0.0 0.0
0.0 0.0 0.0
0.0 0.0 0.0
0.0 0.0 0.0
0.0 0.0 0.0
0.0 0.0 0.0
0.0 0.0 0.0
0.0 0.0 0.0
0.0 0.0 0.0
0.0 0.0 0.0
0.0 0.0 0.0
0.0 0.0 0.0
0.0 0.0 0.0
0.0 0.0 0.0
0.0 0.0 0.0
0.0 0.0 0.0
0.0 0.0 0.0
0.0 0.0 0.0
0.0 0.0 0.0
0.0 0.0 0.0
1.0 0.0 0.0
1.0 0.0 0.0
1.0 0.0 0.0
1.0 0.0 0.0
1.24176472105 -0.029508439324 0.0
1.45327902762 0.009290946232 0.0
1.44992061619 -0.00695706383652 0.0
1.35142020565 -0.000924977954099 0.0
1.44527334519 -0.0291249328634 0.0
1.40489134251 -0.015666655443 0.0
1.40290753405 -0.0328318271251 0.0
1.41623655801 -0.0378555431578 0.0
1.41283087577 -0.032621675689 0.0
1.41179323495 -0.0296093063333 0.0
1.42054237044 -0.0112365323819 0.0
1.41187136122 -0.00804785449741 0.0
1.42246835922 0.0158617650209 0.0
1.43696087009 0.0274386125221 0.0
1.44964849012 0.0392027009507 0.0
1.4779851541 0.0469014116257 0.0
1.25756150003 0.0229147174906 0.0
1.13645694865 -0.0948324698351 0.0
1.29486908803 0.0337748580137 0.0
1.35539766359 0.00553410068531 0.0
1.29844137156 0.00191468900812 0.0
1.35744041256 -0.0184943979542 0.0
1.34128195583 -0.0177010018201 0.0
1.33325393125 -0.0347524157807 0.0
1.35474660501 -0.0206089830174 0.0
1.35522274023 -0.0317386449327 0.0
1.34321996985 -0.0363679111052 0.0
1.33024772808 0.00523291588312 0.0
1.25855629078 -0.0136694290631 0.0
1.35451511375 0.0156799544768 0.0
1.33016721542 -0.0195461613734 0.0
1.32999905685 -0.0209617673731 0.0
1.27460271357 -0.00795598866792 0.0
1.32498197866 0.0321811022008 0.0
1.36332590625 -0.00159129244267 0.0
1.28095869288 0.0236916452933 0.0
1.26983040754 0.00592209838177 0.0
1.27913085259 0.0129039513923 0.0
1.26369845522 -0.0207107093256 0.0
1.29814015367 -0.0421813256017 0.0
1.26488921188 -0.019933204736 0.0
1.25336717705 -0.019180635475 0.0
1.2510513104 -0.0312943792167 0.0
1.25685295957 -0.0345225528966 0.0
1.12661753726 0.109517329213 0.0
1.28633972411 0.00779826360586 0.0
1.26212321962 0.0359064732963 0.0
1.26420111471 0.0359840964272 0.0
1.22380354959 0.0641378861318 0.0
1.23788684232 0.0145356912351 0.0
1.17407343544 -0.0567128338546 0.0
1.2020024385 0.0151805881429 0.0
1.20931762667 -0.00759681789721 0.0
1.13381846498 -0.00966719397313 0.0
1.15180649321 0.00192890752159 0.0
1.23898118339 0.0184174123566 0.0
1.19400735703 0.0522345881526 0.0
1.1039871022 0.00772483635895 0.0
1.2062303714 -0.0279432900119 0.0
1.1471731992 -0.0191373333219 0.0
1.15512360177 -0.0149387895207 0.0
1.20623871815 -0.0206354789598 0.0
1.17863048802 -0.0270126466455 0.0
1.18917265608 -0.0374177237301 0.0
1.18925870322 -0.0184500813665 0.0
1.18014178142 -0.0331529718231 0.0
1.17090831369 -0.000532386923789 0.0
1.17905348592 -0.0137285389803 0.0
0.944918946169 -0.0350397242407 0.0
0.979326116292 -0.0336185607949 0.0
1.00955403466 -0.0311307188923 0.0
0.907957034925 -0.0264481138847 0.0
1.04617726643 -0.00765331899652 0.0
0.892588405672 -0.00635656940524 0.0
1.0375034704 0.0193424324912 0.0
0.790850322839 0.0120618562044 0.0
0.860278497289 0.0307456316443 0.0
0.966674454969 0.0363710764817 0.0
1.15760229589 0.0118053869596 0.0
0.977248201815 -0.0016386233449 0.0
1.03972038663 0.0414453402235 0.0
1.1116994372 0.048631361034 0.0
1.00146319273 0.00724223899376 0.0
1.46162831349 0.00201913571177 0.0
0.80773081079 0.0191991221115 0.0
1.12335746828 0.0913092181329 0.0
1.4690237771 0.0134079655464 0.0
1.12652824256 -0.0063118509481 0.0
0.866307866397 0.0178703247893 0.0
1.0038306125 -0.0546175942744 0.0
0.796842275074 -0.0453319010244 0.0
1.15583444415 -0.133258243748 0.0
0.901302057703 -0.0388669412911 0.0
0.963846162493 -0.0213007422693 0.0
0.846061386603 -0.00807506598818 0.0
1.1364237536 0.0397028259732 0.0
0.969048661988 -0.0388028118375 0.0
0.899833786578 -0.0174507933704 0.0
1.00015900023 -0.0178683018809 0.0
0.861806532638 -9.05867420433e-05 0.0
1.04279922953 0.000383956636386 0.0
0.842532169451 -0.0263034817584 0.0
0.853886013993 0.0203900811383 0.0
0.976300539475 -0.0204413898267 0.0
0.782221391964 -0.00341084133525 0.0
0.97228628879 0.0154290787572 0.0
0.807913564981 -0.0161142082625 0.0
0.857180415271 -0.00986236872558 0.0
0.956778134947 0.00281698833267 0.0
0.969183947252 -0.0094112991368 0.0
0.786386532969 -0.0232901261177 0.0
1.4404404202 0.0229090603419 0.0
1.45148921696 0.059150095627 0.0
0.885976769533 -0.038108341981 0.0
0.801121053766 -0.0201285500998 0.0
1.47657011166 -0.0385579651276 0.0
1.46006746229 -0.0324970808537 0.0
0.873131660087 -0.032436533847 0.0
0.799592457746 -0.0227026625128 0.0
0.928070016817 -0.0171142016398 0.0
0.757414873897 -0.00961832724631 0.0
0.932828991676 0.0108638826738 0.0
0.781774026906 0.0126857481912 0.0
0.885474120156 0.0253509208878 0.0
1.46923287879 -0.0298568367633 0.0
1.47051428431 -0.0400843373259 0.0
1.46549542104 -0.00592501127973 0.0
1.47919796089 -0.0232710353218 0.0
1.45413304851 0.0162344463699 0.0
1.48264792997 0.00290308523155 0.0
1.47088595823 0.0333369131886 0.0
1.47360727068 -0.0186638854059 0.0
1.40997469757 0.00667169838056 0.0
1.35498186066 0.0027044473961 0.0
1.3203955099 -0.00804758029309 0.0
1.48207503587 -0.0010914369164 0.0
1.4769638912 -0.00249297184741 0.0
1.46497473382 0.0245902680182 0.0
1.43741501612 -0.00375802619664 0.0
1.48919380621 -0.0276645193261 0.0
1.44653295701 -0.0157992765539 0.0
1.46686170792 -0.0399722223848 0.0
1.46303522797 0.00791068132502 0.0
1.44142062693 0.00195676062462 0.0
1.457339908 -0.0177165504827 0.0
1.44864444946 -0.0339897784385 0.0
1.44840082871 -0.0244522760578 0.0
1.45286352353 -0.0479710260318 0.0
0.904079227514 0.0199326283175 0.0
0.937478783988 0.00442093487866 0.0
0.763368703067 0.00542554645283 0.0
0.810540369605 -0.00575003843536 0.0
0.937243835055 -0.0485028760874 0.0
0.913109058862 -0.0218533184261 0.0
0.766349234654 -0.0219458272684 0.0
0.845244987315 -0.0296516394262 0.0
0.827330940092 -0.0296309750863 0.0
0.900655331665 0.08601608705 0.0
0.978676994983 -0.0173366392551 0.0
1.1265380188 0.197947147139 0.0
0.859430562562 0.0015748948003 0.0
0.830281575346 0.0149700107158 0.0
1.13443659854 0.0264291164114 0.0
1.32563385467 0.000795796769386 0.0
1.21706414226 -0.0922502345116 0.0
0.992109180898 -0.00612867325012 0.0
0.727759633183 -0.0020030488676 0.0
0.771300719542 -0.0141752947342 0.0
0.894536380991 -0.0329918577841 0.0
0.873034087287 0.0160634483261 0.0
0.730806019568 -0.00329158211025 0.0
0.849790141065 -0.0211250154277 0.0
0.817187616047 -0.0339922233453 0.0
0.907589603983 -0.0107322605497 0.0
0.761029663177 -0.0182212578141 0.0
1.38160763404 -0.00517044724419 0.0
1.36132283031 0.0250465407103 0.0
0.742688918343 0.000877955030495 0.0
1.379289132 -0.0199989540239 0.0
1.39317584062 -0.00421460384925 0.0
0.911304645234 0.0321090967209 0.0
0.84754331389 0.175048953315 0.0
1.40535717363 -0.0330446424695 0.0
1.39440811421 -0.0310028561478 0.0
0.80987737863 -0.00604630749722 0.0
0.947001823308 0.0358365253198 0.0
1.403923165 -0.0357458160945 0.0
1.40058906577 -0.0245498610028 0.0
1.39088821482 0.00130935493129 0.0
1.40784145435 -0.0175468148265 0.0
0.841433685899 0.055150809464 0.0
1.40272926152 0.00514842439429 0.0
1.33558018387 0.0481410309406 0.0
1.34559421895 0.0107954770398 0.0
1.32773947662 -0.00431662510686 0.0
1.24605533579 -0.01496080154 0.0
1.28453187856 0.0330794748421 0.0
1.28552942583 0.0151781923955 0.0
1.28389665612 0.0161454992992 0.0
1.29055837167 -0.0444765927462 0.0
1.25987212729 -0.023224125404 0.0
1.28514736561 -0.016236014656 0.0
1.27908243543 -0.0113836037666 0.0
1.26903168906 -0.0278842458379 0.0
1.28043709231 -0.0367829617269 0.0
1.32871811732 -0.0129151315282 0.0
1.23836797777 -0.00627363654385 0.0
1.28790648253 0.0184735295359 0.0
1.27281258937 -0.026814346086 0.0
1.32253148483 -0.0248607020947 0.0
1.26487331776 -0.00581136364423 0.0
1.32928363011 -0.0329641957645 0.0
1.23946149804 -0.0468228561102 0.0
1.32978362081 0.0179959430716 0.0
1.28097003535 -0.00673146839951 0.0
1.29670749531 0.000528320495874 0.0
1.27666515036 -0.0318095306099 0.0
1.27666242033 -0.0199017158315 0.0
1.23015843678 0.0610558192677 0.0
1.35186127874 0.0151785973429 0.0
1.26658404533 -0.0386863863737 0.0
1.27766601763 -0.0311017193379 0.0
1.33915827962 0.0303571240917 0.0
1.34179783127 0.0522852843094 0.0
0.84119536115 -0.0935973571291 0.0
1.29225234391 0.00920981835728 0.0
1.2984963561 0.0551662316274 0.0
1.47054211807 0.0478771780127 0.0
1.4632087533 0.0501561313281 0.0
1.31471867833 0.00804149391128 0.0
1.00547137426 0.0975832600266 0.0
0.697811516267 0.00610434465167 0.0
1.13401313507 0.16394063404 0.0
1.04448151119 -0.0769350221133 0.0
1.28843695718 0.00299418836126 0.0
1.35175169856 0.00961952646329 0.0
1.27660173747 0.0370221442648 0.0
1.42961281457 -0.0242766535134 0.0
1.39974816359 0.0315230347732 0.0
0.923009850927 0.0790736275025 0.0
0.730928806439 0.0527786625331 0.0
1.10514044557 -0.109420179982 0.0
0.800309035311 -0.0428104940146 0.0
1.42778096398 -0.0432162446744 0.0
1.43196966383 -0.00165048118234 0.0
0.559458473547 0.0305482013862 0.0
0.568002403662 0.00824619378333 0.0
0.756801105195 -0.0239095662441 0.0
1.44642742355 -0.0185223700892 0.0
1.44163176512 -0.0509766708563 0.0
1.42394285145 0.0228402580739 0.0
1.40478639559 0.0273985894582 0.0
1.44573853996 -0.0130561470903 0.0
1.44597416958 -0.0377214021464 0.0
1.44823709516 0.00998628965128 0.0
1.43464519062 -0.00396007744124 0.0
0.605691560668 -0.00480935094147 0.0
0.744975060297 -0.0294749533393 0.0
1.44597690649 0.0252556521191 0.0
0.680782394412 -0.0151052291666 0.0
0.665776281696 -0.031835956414 0.0
0.773396397475 -0.00682741750709 0.0
0.583815680176 -0.0210659969559 0.0
0.716852398861 -0.0101532086591 0.0
0.741504884986 -0.000234107904604 0.0
0.800675075058 -0.00214449391049 0.0
0.591832850213 -0.00874803746081 0.0
0.897359935214 0.0360948549062 0.0
0.567655223136 -0.0225150854635 0.0
0.771553469149 -0.0172937698459 0.0
0.593479875542 -0.0190612474437 0.0
0.538123651758 0.0452627831321 0.0
1.18691558647 -0.01411324292 0.0
0.915904743832 0.0263070451541 0.0
0.546288217548 0.0348616909127 0.0

SCALARS scalar1 double
LOOKUP_TABLE default
3.97756584764
4.4589413407
7.46178446342
5.34430302815
-5.98542487151
-2.31837553844
10.2225151657
8.74011928782
6.15258624223
5.12168928085
4.66354985519
4.38362673246
4.34818911828
4.33196226882
4.81099965009
4.96111854029
5.36582570429
5.8106645147
6.30418640527
6.65582107171
6.93928433219
7.46130862426
7.41717152765
7.42606924848
7.60528688734
7.15729335167
6.7667461555
6.77885938424
6.53441718966
5.90625894127
7.12838190217
3.93907668566
6.4271808655
4.96404856613
4.94828412341
4.63226175383
4.48159462225
4.59275594156
4.56547751708
4.88299120911
5.13054393055
5.41634940794
5.83778465356
6.11715562539
6.56853512154
7.32981706067
7.19673310546
7.77374981332
7.65136793775
6.95337623874
7.03656172765
6.58773624999
6.80878211134
5.84670365362
3.39589317904
1.25262788981
-0.948685204244
-3.23466453719
-5.75442727867
-5.45641061388
-4.56834420828
-4.12076628582
-4.44232304995
-4.05192794974
-4.3486225587
-4.45842702959
-4.34033404934
-4.72019186216
-5.06823512227
-5.15501899102
-5.83592416392
-6.01992210154
-6.23083396913
-7.08193368684
-6.95465927209
-7.04288074341
-7.67282774559
-8.83220359951
-5.88336156136
-6.71078314701
-6.36453476299
-6.04561531153
-5.87811673392
-4.47472786411
-6.06453793317
-4.52127315654
-4.20127340835
-4.51999289649
-4.20080942401
-4.07009469467
-4.50894492603
-4.54553086157
-4.56249638061
-5.13818907479
-5.56669510991
-5.65003741926
-6.25392171699
-7.12081077917
-7.09791712947
-7.5981965432
-8.93950464423
-8.21149765912
-8.2620911095
-8.66453816644
-9.2476882872
-10.9996522701
-11.4923770258
2.91858725131
0.0265918133077
0.032532807285
-2.73342085693
-0.0917371160539
0.498913213038
0.658579281259
0.53853754704
0.644816762974
0.694524458047
0.961763819954
0.859564650286
0.991478326715
0.859169907484
1.01289362128
0.715035286421
0.941738624886
0.102750570714
0.234233392642
0.106974424544
2.26732133098
-0.936974986141
-1.85940354256
-1.52302649075
-1.71993683158
-1.49388677713
-1.52139028064
-1.61132059246
-1.43852090098
-1.48987884537
-1.52136588489
1.86415867226
1.27393317872
-1.07739900554
-1.68161260411
1.86527785752
1.77301259958
-0.172135432126
-1.57846180681
2.05273726191
2.09982065292
1.84297413993
2.01951864233
1.97158303706
2.10627683933
2.15925200991
2.12755453451
2.16259124608
0.875832041888
-2.15863381293
-1.89613902491
-1.93123928877
1.92431351114
2.1344824798
1.53303218268
2.5523112142
2.51284068491
2.42221353209
-2.68239829823
-1.75670086044
-1.50159291772
-3.05523541611
2.55552281845
2.66922241996
-2.63678875784
-2.30041195331
-2.47516984426
-2.44099938375
-2.37071247826
-2.50954986187
-2.37318668136
-2.57639612474
3.49356110694
3.48479015904
3.31996930724
3.79154035635
3.2178035105
3.82789845806
3.20996850669
4.10745098141
3.82676496756
-3.29646547644
-2.72354716523
-2.94744492276
-2.59782014402
2.31057570849
-0.0499209339065
0.10212417456
-3.9622215933
-2.68871196334
0.160736180569
-0.141316041761
3.64589501991
3.39337397651
3.74492127501
-0.36200042614
-3.48735789908
-3.3940036988
-3.76393316305
-2.58925211655
-3.23534801914
-3.59144272994
-3.10495767451
-3.78695455766
-3.17591766105
-3.74195124242
-3.87605427252
3.42144366721
3.82787194114
3.44201068715
3.73770172405
3.67895993007
3.39111960282
3.51010146661
3.86940157442
-0.0866235578669
-0.0598033583391
3.77319402812
3.88329847952
0.378128887972
0.483897183564
3.77548008633
4.04576325185
3.64203755787
4.10488653748
3.5830218621
4.21474906755
3.75081652369
0.407891618014
0.540493596402
0.311230186
0.569144924226
0.106086544241
0.542267396703
0.291223350331
0.339383674267
0.388219657757
0.237278619839
0.0928562860264
0.290755673258
0.233810977157
0.459211622246
0.348400975119
0.276209887208
0.455838926998
0.368614815777
0.620744851634
0.231879584241
0.614991194446
0.419787690536
0.583106201514
0.478641689088
3.6699991713
3.62457489159
4.17990026331
3.86025180037
3.63455699598
3.70563570017
4.16645644042
3.83209295205
4.00562977598
-3.38009057312
-3.12434563441
0.128333294044
-3.98684468251
-3.80465213028
-2.62182430784
1.86440735204
-0.449772318556
-3.5978907376
-4.05611470155
-3.90854704479
-3.72287030898
-3.70104675442
-4.1821111504
-3.69543510547
-3.83512964753
-3.50690243731
-4.00153513621
-1.26696834684
-0.291959414316
-4.10297584717
-1.30386969971
-0.938998200639
-3.43558881749
3.9240957125
-1.07419617831
-1.19527042362
3.93543837346
-3.31402690093
-1.08555969503
-1.17113947467
-1.22110451028
-1.07462859435
3.95239906872
-1.1476401679
-1.52272791685
-1.51448283949
1.79657460245
1.64951234872
2.05005406339
2.1231030322
1.81960597879
2.06891862853
2.06907064559
2.21268710456
2.12191704156
2.10977640518
2.24325239709
1.78653826063
1.27394771415
2.05501818024
1.87737443856
1.81805354767
1.68184647267
1.78143587576
0.975555708411
1.76532902891
2.09592314327
1.92352730848
2.12426939557
2.15191935221
0.343233721787
-1.58870152256
2.18395801218
2.1131313915
-1.34475035693
-1.3582095298
3.53217978603
1.79803206647
2.0052779043
0.589392369196
0.548956292852
-1.97768874065
1.23689941384
-4.43360960687
-3.41502531707
-1.41877648348
2.19007988379
-1.48134758835
0.0670768035696
-0.877909835658
-0.279089968145
-3.96912044717
4.21090875351
3.74108557587
-4.1735157611
-0.876020047159
-0.67920870008
-4.23895617694
-4.17956956385
-3.93362026313
-0.692020939569
-0.772759860018
-1.13704932336
-1.1908735066
-0.673669573288
-0.798452047381
-0.662546415251
-0.919204038913
-4.14550661728
-3.99832777998
-0.81559486822
-4.17205311027
-4.12674467339
-4.28892350346
-4.24186840949
4.4168219987
4.28906452361
4.35078946495
4.21673614587
-4.3772898725
-4.32328472846
4.43240662708
4.29686087419
4.59984743242
1.4836102997
-4.35074579356
-4.2052174458

SCALARS scalar2 double
LOOKUP_TABLE default
3.97756584764
4.4589413407
7.46178446342
5.34430302815
-5.98542487151
-2.31837553844
10.2225151657
8.74011928782
6.15258624223
5.12168928085
4.66354985519
4.38362673246
4.34818911828
4.33196226882
4.81099965009
4.96111854029
5.36582570429
5.8106645147
6.30418640527
6.65582107171
6.93928433219
7.46130862426
7.41717152765
7.42606924848
7.60528688734
7.15729335167
6.7667461555
6.77885938424
6.53441718966
5.90625894127
7.12838190217
3.93907668566
6.4271808655
4.96404856613
4.94828412341
4.63226175383
4.48159462225
4.59275594156
4.56547751708
4.88299120911
5.13054393055
5.41634940794
5.83778465356
6.11715562539
6.56853512154
7.32981706067
7.19673310546
7.77374981332
7.65136793775
6.95337623874
7.03656172765
6.58773624999
6.80878211134
5.84670365362
3.39589317904
1.25262788981
-0.948685204244
-3.23466453719
-5.75442727867
-5.45641061388
-4.56834420828
-4.12076628582
-4.44232304995
-4.05192794974
-4.3486225587
-4.45842702959
-4.34033404934
-4.72019186216
-5.06823512227
-5.15501899102
-5.83592416392
-6.01992210154
-6.23083396913
-7.08193368684
-6.95465927209
-7.04288074341
-7.67282774559
-8.83220359951
-5.88336156136
-6.71078314701
-6.36453476299
-6.04561531153
-5.87811673392
-4.47472786411
-6.06453793317
-4.52127315654
-4.20127340835
-4.51999289649
-4.20080942401
-4.07009469467
-4.50894492603
-4.54553086157
-4.56249638061
-5.13818907479
-5.56669510991
-5.65003741926
-6.25392171699
-7.12081077917
-7.09791712947
-7.5981965432
-8.93950464423
-8.21149765912
-8.2620911095
-8.66453816644
-9.2476882872
-10.9996522701
-11.4923770258
2.91858725131
0.0265918133077
0.032532807285
-2.73342085693
-0.0917371160539
0.498913213038
0.658579281259
0.53853754704
0.644816762974
0.694524458047
0.961763819954
0.859564650286
0.991478326715
0.859169907484
1.01289362128
0.715035286421
0.941738624886
0.102750570714
0.234233392642
0.106974424544
2.26732133098
-0.936974986141
-1.85940354256
-1.52302649075
-1.71993683158
-1.49388677713
-1.52139028064
-1.61132059246
-1.43852090098
-1.48987884537
-1.52136588489
1.86415867226
1.27393317872
-1.07739900554
-1.68161260411
1.86527785752
1.77301259958
-0.172135432126
-1.57846180681
2.05273726191
2.09982065292
1.84297413993
2.01951864233
1.97158303706
2.10627683933
2.15925200991
2.12755453451
2.16259124608
0.875832041888
-2.15863381293
-1.89613902491
-1.93123928877
1.92431351114
2.1344824798
1.53303218268
2.5523112142
2.51284068491
2.42221353209
-2.68239829823
-1.75670086044
-1.50159291772
-3.05523541611
2.55552281845
2.66922241996
-2.63678875784
-2.30041195331
-2.47516984426
-2.44099938375
-2.37071247826
-2.50954986187
-2.37318668136
-2.57639612474
3.49356110694
3.48479015904
3.31996930724
3.79154035635
3.2178035105
3.82789845806
3.20996850669
4.10745098141
3.82676496756
-3.29646547644
-2.72354716523
-2.94744492276
-2.59782014402
2.31057570849
-0.0499209339065
0.10212417456
-3.9622215933
-2.68871196334
0.160736180569
-0.141316041761
3.64589501991
3.39337397651
3.74492127501
-0.36200042614
-3.48735789908
-3.3940036988
-3.76393316305
-2.58925211655
-3.23534801914
-3.59144272994
-3.10495767451
-3.78695455766
-3.17591766105
-3.74195124242
-3.87605427252
3.42144366721
3.82787194114
3.44201068715
3.73770172405
3.67895993007
3.39111960282