# vtk DataFile Version 2.0
2D Simulation Python
ASCII
DATASET UNSTRUCTURED_GRID
FIELD FieldData 1
NODES 1 2 int
386 659

POINTS 386 double
0.0 1.0 0.0
1.725 1.030937982759243 0.0
8.275 0.9690620172407566 0.0
10.0 1.0 0.0
10.0 -1.8323777748698938e-17 0.0
0.0 0.0 0.0
0.1916666666663293 1.0089226421555468 0.0
0.3833333333324708 1.0173301673292305 0.0
0.574999999998553 1.0247371969844281 0.0
0.7666666666645966 1.0307161126316886 0.0
0.9583333333312576 1.0349217428599888 0.0
1.149999999998384 1.037111290579365 0.0
1.341666666665662 1.0371583500466175 0.0
1.533333333332819 1.0350602044509274 0.0
1.92348484848444 1.0247905760242626 0.0
2.121969696968978 1.0171088760583744 0.0
2.320454545453434 1.0083683046609 0.0
2.518939393937826 0.9991098173754401 0.0
2.717424242422235 0.989906423653509 0.0
2.915909090906411 0.9813277231960303 0.0
3.1143939393908 0.9739046533248519 0.0
3.312878787875129 0.9680966291759904 0.0
3.511363636359531 0.9642631104137839 0.0
3.709848484843827 0.9626413542073162 0.0
3.90833333332816 0.9633317313413263 0.0
4.106818181812215 0.9662915142502032 0.0
4.305303030296804 0.9713375214347688 0.0
4.503787878781365 0.9781574545983244 0.0
4.702272727265711 0.9863292268447034 0.0
4.900757575750005 0.9953470857125782 0.0
5.099242424235156 1.00465291428673 0.0
5.297727272720327 1.0136707731546861 0.0
5.496212121205663 1.0218425454011804 0.0
5.694696969690998 1.0286624785648633 0.0
5.89318181817668 1.0337084857495704 0.0
6.09166666666213 1.0366682686585835 0.0
6.290151515147423 1.037358645792705 0.0
6.488636363633031 1.0357368895863195 0.0
6.687121212118713 1.0319033708241607 0.0
6.885606060604342 1.026095346675312 0.0
7.084090909089381 1.018672276804141 0.0
7.282575757574369 1.0100935763466445 0.0
7.481060606059355 1.0008901826246923 0.0
7.679545454544343 0.9916316953392023 0.0
7.878030303029329 0.9828911239416963 0.0
8.076515151514705 0.9752094239757674 0.0
8.46666666666447 0.9649397955491172 0.0
8.658333333329285 0.9628416499534099 0.0
8.84999999999549 0.9628887094205989 0.0
9.041666666661694 0.9650782571398917 0.0
9.233333333327899 0.9692838873681103 0.0
9.42499999999549 0.9752628030153615 0.0
9.616666666663775 0.9826698326706131 0.0
9.808333333331985 0.9910773578443761 0.0
10.0 0.7999999999999998 0.0
10.0 0.6000000000013869 0.0
10.0 0.4000000000016644 0.0
10.0 0.2000000000008322 0.0
9.799999999999999 -0.009302556100115112 0.0
9.6 -0.018020598388051715 0.0
9.399999999999999 -0.025606340204142222 0.0
9.2 -0.03158314149167475 0.0
8.999999999999998 -0.03557545784461611 0.0
8.799999999999997 -0.03733243734379846 0.0
8.599999999999998 -0.03674368250556964 0.0
8.399999999999997 -0.03384618696170438 0.0
8.199999999999998 -0.02882201101346696 0.0
7.999999999999997 -0.021986842113311682 0.0
7.799999999999997 -0.013770159061228129 0.0
7.599999999999998 -0.004688246272225187 0.0
7.399999999999997 0.004688246272225475 0.0
7.199999999999998 0.01377015906122834 0.0
6.999999999999997 0.02198684211331193 0.0
6.799999999999997 0.028822011013467142 0.0
6.599999999999998 0.03384618696170449 0.0
6.399999999999997 0.03674368250556974 0.0
6.199999999999998 0.037332437343798444 0.0
5.999999999999997 0.03557545784461604 0.0
5.799999999999998 0.03158314149167465 0.0
5.599999999999998 0.02560634020414211 0.0
5.399999999999999 0.018020598388051628 0.0
5.199999999999998 0.009302556100114961 0.0
4.999999999999999 -7.560873695784131e-17 0.0
4.799999999999999 -0.009302556100115067 0.0
4.599999999999999 -0.018020598388051715 0.0
4.399999999999999 -0.02560634020414225 0.0
4.199999999999999 -0.03158314149167474 0.0
3.999999999999999 -0.0355754578446161 0.0
3.799999999999999 -0.037332437343798444 0.0
3.599999999999999 -0.03674368250556968 0.0
3.399999999999998 -0.03384618696170444 0.0
3.199999999999998 -0.02882201101346696 0.0
2.999999999999999 -0.021986842113311752 0.0
2.799999999999998 -0.013770159061228204 0.0
2.599999999999998 -0.004688246272225175 0.0
2.399999999999999 0.004688246272225334 0.0
2.199999999999999 0.013770159061228332 0.0
1.999999999999998 0.021986842113311887 0.0
1.799999999999999 0.0288220110134671 0.0
1.6 0.03384618696170445 0.0
1.4 0.03674368250556968 0.0
1.199999999999999 0.037332437343798444 0.0
0.9999999999999982 0.035575457844616035 0.0
0.7999999999999989 0.031583141491674696 0.0
0.6000000000000014 0.02560634020414223 0.0
0.3999999999999986 0.0180205983880516 0.0
0.1999999999999993 0.009302556100114988 0.0
0.0 0.1999999999995579 0.0
0.0 0.3999999999989749 0.0
0.0 0.5999999999989468 0.0
0.0 0.7999999999994734 0.0
0.6588254037002139 0.555611934738323 0.0
9.341174023062308 0.5361907576924014 0.0
8.741480323778326 0.5537573473925335 0.0
1.258516264909191 0.5808907086649174 0.0
8.162907355224224 0.562583916001817 0.0
1.8370754337367703 0.5826755231320325 0.0
2.430368781279842 0.5991104953979354 0.0
7.569544117508481 0.5961827731857383 0.0
3.0304157596918326 0.5934519694142132 0.0
6.969088695940948 0.6087753471432787 0.0
3.6285906461022552 0.587103974067875 0.0
6.368030365298729 0.6047165431986488 0.0
4.229342742950193 0.5794838596993377 0.0
5.795159404488226 0.5393640546562384 0.0
4.802443211859468 0.5247892660921427 0.0
5.29881563193004 0.5252459838252436 0.0
9.677462353762037 0.6943647496466898 0.0
0.32253750138424864 0.7065969790237663 0.0
4.530483810431669 0.329954587924402 0.0
3.9187609073697 0.3578417857481221 0.0
6.0679974841377256 0.353169773393475 0.0
3.31934195290236 0.36382069946086837 0.0
6.679707471862545 0.3845738669862684 0.0
7.879045828892629 0.3604177939355213 0.0
2.1209194838776564 0.3741438092688905 0.0
2.7200418928941814 0.3713427777720885 0.0
7.27977425038809 0.378843115840251 0.0
9.037300753174996 0.658187677049513 0.0
0.9626979952805932 0.6867063115375732 0.0
1.5320336778770205 0.37438151431227695 0.0
8.467959512950088 0.34603640294817145 0.0
8.45834543784703 0.6654573340107983 0.0
1.5416479986877425 0.694262179106558 0.0
0.9793689835063962 0.3793771548449439 0.0
9.020629609795241 0.35108383881699096 0.0
4.527158545277259 0.681675869905677 0.0
3.9213424096929352 0.6863753984350277 0.0
6.069717997277247 0.7056800781186107 0.0
2.118313833656911 0.698955286409074 0.0
7.881654648717751 0.6845657058243697 0.0
3.3232932483420106 0.6915180382537146 0.0
6.675607319910637 0.714726596686781 0.0
2.7253044064789407 0.699628819024245 0.0
7.274521299102499 0.707638109110759 0.0
0.3328314940106788 0.3098256226139407 0.0
9.667168345976197 0.29738606839365744 0.0
5.581334957879759 0.33222980132244084 0.0
5.01720175264147 0.32176566985575894 0.0
5.509464789252952 0.7037093674121494 0.0
5.087377262048206 0.6960387495084321 0.0
0.661883874718596 0.7476850370014673 0.0
9.338115698132823 0.7233159155775304 0.0
8.747660851721884 0.7231508657623231 0.0
1.2523366452958415 0.7567326050039401 0.0
8.670424913397373 0.25933250250253437 0.0
1.3295717506455207 0.29265809977518953 0.0
0.6803863618826641 0.24974848650625864 0.0
9.31961321049717 0.22400395999839684 0.0
8.169958862809025 0.7322121424345669 0.0
1.8300286844608402 0.7572989596606167 0.0
8.082290892650589 0.2668189952087299 0.0
1.9176920418791654 0.2892006997846523 0.0
7.485232737984018 0.2855455705566043 0.0
2.514678081934334 0.2853532126951829 0.0
6.885209099735626 0.29711197193578065 0.0
3.1143446148732528 0.27643587360161126 0.0
6.284970271283096 0.2874595575584236 0.0
3.7137324507500646 0.2698167625030862 0.0
2.422406120097903 0.8142459752580303 0.0
7.577543693706026 0.8096873986927132 0.0
3.021559697581575 0.8015043621310864 0.0
6.978143337886085 0.8271189933040587 0.0
3.6184160982198508 0.7925840027708481 0.0
6.379503412292193 0.8313999279066306 0.0
4.216850304929253 0.7914801520220446 0.0
5.793610269494332 0.862875754678455 0.0
4.802558285113933 0.8374065803024796 0.0
5.299576906266657 0.19424443525748614 0.0
4.313835993559545 0.2585437467440345 0.0
4.7431785409981995 0.2322211913971678 0.0
5.855744565459554 0.2551154902193929 0.0
5.298368544366175 0.7238098782697614 0.0
0.1948317524078946 0.5052693625672663 0.0
9.805168149270557 0.49896097239085113 0.0
9.486971138274923 0.1490213333273367 0.0
0.5130286787088406 0.1756120811195477 0.0
9.568938580216917 0.5055023905952548 0.0
0.4310611431127529 0.518831665612701 0.0
9.509146529149428 0.8234724996072273 0.0
0.4908533043882913 0.8491790961802197 0.0
9.82368759967776 0.8231963102315374 0.0
0.17631235389812813 0.8322634062675532 0.0
7.690711868986878 0.1872743371135994 0.0
2.309252054308895 0.1979790953231055 0.0
8.876685596807361 0.17000009391966397 0.0
1.1233130367121742 0.21349366749957144 0.0
7.090915609930441 0.20549237920593783 0.0
2.908901280394042 0.18475864486611804 0.0
6.4911046487168 0.21069063505139957 0.0
3.508491263443362 0.17439241427663557 0.0
1.713288617051476 0.20664699416954743 0.0
8.286704409598896 0.16945711758406592 0.0
4.108088598425649 0.1700440151918604 0.0
8.577589112188608 0.8067092942245621 0.0
1.4224079952960442 0.8502961848521775 0.0
8.923354490557095 0.8045292835419209 0.0
1.0766444210973038 0.8479418374746588 0.0
0.8418523601584967 0.8442271501426114 0.0
9.158147104863499 0.8054943572885508 0.0
8.345883606177676 0.8100436377455341 0.0
1.654110838553503 0.8492087175616423 0.0
5.592462320361541 0.5137919398611647 0.0
5.005242411031188 0.5046076710711836 0.0
7.789440636142413 0.8311207944804285 0.0
2.2105351837297684 0.8474938359521174 0.0
7.776934001943633 0.5470857997989688 0.0
2.223015486378282 0.5565343156708971 0.0
2.8152368480595458 0.8357339409386185 0.0
7.184624795812295 0.8531456290432883 0.0
3.412015434734525 0.8237409040985659 0.0
6.5870634681784725 0.86359039085468 0.0
4.009168122939754 0.8205043581894833 0.0
5.984848814831639 0.8655135145465611 0.0
4.611323154165742 0.8322809324755494 0.0
7.175233328374165 0.5647150814881805 0.0
2.8244888271766655 0.5552089328930829 0.0
6.575260157333189 0.5669265657203266 0.0
3.4230107331034336 0.5486311779310227 0.0
5.978065037850853 0.5441431930969266 0.0
4.022340934054827 0.5424124885288312 0.0
4.619531060779359 0.5253732843872616 0.0
8.549052751439582 0.5273964157312377 0.0
1.4509412925145986 0.5534988315364148 0.0
[...]
POINT_DATA 386
VECTORS vector double
1.0 0.0 0.0
0.0 0.0 0.0
0.0 0.0 0.0
0.0 0.0 0.0
0.0 0.0 0.0
1.0 0.0 0.0
0.0 0.0 0.0
0.0 0.0 0.0
0.0 0.0 0.0
0.0 0.0 0.0
0.0 0.0 0.0
0.0 0.0 0.0
0.0 0.0 0.0
0.0 0.0 0.0
0.0 0.0 0.0
0.0 0.0 0.0
0.0 0.0 0.0
0.0 0.0 0.0
0.0 0.0 0.0
0.0 0.0 0.0
0.0 0.0 0.0
0.0 0.0 0.0
0.0 0.0 0.0
0.0 0.0 0.0
0.0 0.0 0.0
0.0 0.0 0.0
0.0 0.0 0.0
0.0 0.0 0.0
0.0 0.0 0.0
0.0 0.0 0.0
0.0 0.0 0.0
0.0 0.0 0.0
0.0 0.0 0.0
0.0 0.0 0.0
0.0 0.0 0.0
0.0 0.0 0.0
0.0 0.0 0.0
0.0 0.0 0.0
0.0 0.0 0.0
0.0 0.0 0.0
0.0 0.0 0.0
0.0 0.0 0.0
0.0 0.0 0.0
0.0 0.0 0.0
0.0 0.0 0.0
0.0 0.0 0.0
0.0 0.0 0.0
0.0 0.0 0.0
0.0 0.0 0.0
0.0 0.0 0.0
0.0 0.0 0.0
0.0 0.0 0.0
0.0 0.0 0.0
0.0 0.0 0.0
0.909601031272 0.0927665245403 0.0
1.38548270657 0.00474092724316 0.0
1.41760848554 -0.00296684180641 0.0
1.00817890804 -0.0875137779947 0.0
0.0 0.0 0.0
0.0 0.0 0.0
0.0 0.0 0.0
0.0 0.0 0.0
0.0 0.0 0.0
0.0 0.0 0.0
0.0 0.0 0.0
0.0 0.0 0.0
0.0 0.0 0.0
0.0 0.0 0.0
0.0 0.0 0.0
0.0 0.0 0.0
0.0 0.0 0.0
0.0 0.0 0.0
0.0 0.0 0.0
0.0 0.0 0.0
0.0 0.0 0.0
0.0 0.0 0.0
0.0 0.0 0.0
0.0 0.0 0.0
0.0 0.0 0.0
0.0 0.0 0.0
0.0 0.0 0.0
0.0 0.0 0.0
0.0 0.0 0.0
0.0 0.0 0.0
0.0 0.0 0.0
0.0 0.0 0.0
0.0 0.0 0.0
0.0 0.0 0.0
0.0 0.0 0.0
0.0 0.0 0.0
0.0 0.0 0.0
0.0 0.0 0.0
0.0 0.0 0.0
0.0 0.0 0.0
0.0 0.0 0.0
0.0 0.0 0.0
0.0 0.0 0.0
0.0 0.0 0.0
0.0 0.0 0.0
0.0 0.0 0.0
0.0 0.0 0.0
0.0 0.0 0.0
0.0 0.0 0.0
0.0 0.0 0.0
0.0 0.0 0.0
0.0 0.0 0.0
0.0 0.0 0.0
1.0 0.0 0.0
1.0 0.0 0.0
1.0 0.0 0.0
1.0 0.0 0.0
1.23851253656 -0.0281071619861 0.0
1.44868085222 0.00644481334928 0.0
1.44173730939 -0.00809444149706 0.0
1.35297654512 0.0021132433219 0.0
1.43819107793 -0.0270954505011 0.0
1.40929645929 -0.0112994426762 0.0
1.40257764844 -0.0281645934759 0.0
1.4123134916 -0.0342290853004 0.0
1.4035107085 -0.0306329343689 0.0
1.4155351192 -0.0273241532724 0.0
1.40643854027 -0.0116000984434 0.0
1.41735856456 -0.00687483697336 0.0
1.41284770825 0.0136511160744 0.0
1.43216813203 0.0268674305112 0.0
1.44921211282 0.0375109133228 0.0
1.47774719776 0.0420437452232 0.0
1.24830436873 0.0175284544568 0.0
1.13779407847 -0.111119799225 0.0
1.30435235605 0.0306729165377 0.0
1.36889204451 0.00380022098658 0.0
1.26548420607 0.00390488240929 0.0
1.36870017521 -0.0174361791933 0.0
1.32162402792 -0.0138464495692 0.0
1.33836805651 -0.0308051697361 0.0
1.34665341905 -0.014701735699 0.0
1.35765389323 -0.0280440872866 0.0
1.33507369041 -0.0308628049614 0.0
1.3107593179 0.00101145193352 0.0
1.26931465114 -0.00907736362652 0.0
1.33667263477 0.0207652902717 0.0
1.34471571549 -0.019626028641 0.0
1.30907297722 -0.0201162700438 0.0
1.29281896778 -0.00330323806894 0.0
1.31181558406 0.0385872988848 0.0
1.37568455062 -0.00494932710512 0.0
1.26992109639 0.0187087010866 0.0
1.24411660068 0.0025776871324 0.0
1.30097565461 0.0142759798656 0.0
1.27506009787 -0.0122229440258 0.0
1.28683769181 -0.0370472168557 0.0
1.24121003522 -0.0187394185473 0.0
1.27707022871 -0.0161921631567 0.0
1.24424575846 -0.0268271582549 0.0
1.26453313414 -0.0290159206173 0.0
1.12111745029 0.0962710148297 0.0
1.29618108374 0.00237483174309 0.0
1.24129653353 0.0316658840361 0.0
1.25861392013 0.0310921333785 0.0
1.2447714484 0.0614358828327 0.0
1.24475086485 0.0115587288783 0.0
1.1850688902 -0.0560493136965 0.0
1.17908185151 0.0106594952023 0.0
1.17729313558 -0.00770670249775 0.0
1.16198313029 -0.00920105968467 0.0
1.18004429924 0.000876941520486 0.0
1.20433079041 0.0208965592769 0.0
1.17709138694 0.0492365748313 0.0
1.13126127715 0.00553517700198 0.0
1.18238791294 -0.0233758929144 0.0
1.17152415871 -0.0147774699077 0.0
1.17259665008 -0.0116965222621 0.0
1.18366091817 -0.0149059378846 0.0
1.17446908126 -0.0208892610604 0.0
1.18847042094 -0.0327098650596 0.0
1.16394856977 -0.0142377460725 0.0
1.19997239792 -0.0306359965487 0.0
1.1308268299 0.00409714497188 0.0
1.20750543451 -0.0135049876836 0.0
0.957473504901 -0.0275058312843 0.0
0.985085955339 -0.0265717746199 0.0
0.988804363797 -0.0245418893114 0.0
0.94307074443 -0.0220909367815 0.0
1.00232363293 -0.00672417889109 0.0
0.942303969007 -0.00684053310641 0.0
0.997960804621 0.0137057650293 0.0
0.832540028674 0.0139816406396 0.0
0.848251330528 0.0239704012999 0.0
0.951024019234 0.0281003718626 0.0
1.18093924629 0.00928573004367 0.0
0.987682688166 -0.00325545686772 0.0
1.00297436092 0.0350908017102 0.0
1.12733524919 0.0432053845493 0.0
0.997227094862 -0.00550497465432 0.0
1.46026641759 -0.000743634407358 0.0
0.83201028993 0.0142800197132 0.0
1.11361829553 0.0800212650494 0.0
1.46757879785 0.0110132219402 0.0
1.12459172267 -0.0156303228093 0.0
0.841560585399 0.0110520047845 0.0
1.01577496848 -0.0635107949828 0.0
0.788525812729 -0.0477163526605 0.0
1.16419346318 -0.156022758131 0.0
0.906395265317 -0.0322241305229 0.0
0.947937334912 -0.0127687760048 0.0
0.881838274679 -0.011571659685 0.0
1.09734303021 0.0397797629599 0.0
0.943836550957 -0.0315964077866 0.0
0.915791254697 -0.01281953313 0.0
0.95323203147 -0.0136646679374 0.0
0.898671193803 0.000371657243283 0.0
1.0024562407 0.00860910689768 0.0
0.870759810191 -0.0241045527271 0.0
0.891643999399 0.0175629900911 0.0
0.936505184118 -0.0181540434102 0.0
0.819171882162 0.00057253544302 0.0
0.930919665133 0.0101816641876 0.0
0.842794311298 -0.0164742082961 0.0
0.883959331534 -0.00759435555294 0.0
0.918634588189 -0.00226726503424 0.0
0.936135411068 -0.00718692559296 0.0
0.82199562858 -0.0205603486723 0.0
1.43619655189 0.0202326973885 0.0
1.44988537493 0.0556319350826 0.0
0.881568282297 -0.0313722388799 0.0
0.823715061051 -0.011723942062 0.0
1.47194139808 -0.0339892273668 0.0
1.46111056279 -0.0255179661537 0.0
0.864579746051 -0.0267247342464 0.0
0.828515811469 -0.0190538133185 0.0
0.886991629274 -0.0159006800911 0.0
0.807614322598 -0.0111871422598 0.0
0.883730829167 0.00483453955156 0.0
0.831104820556 0.0143494162815 0.0
0.861002256604 0.0169565918311 0.0
1.46724964236 -0.0264916137098 0.0
1.46576303117 -0.0374171456354 0.0
1.46528264792 -0.00557079024934 0.0
1.47067637157 -0.024020295296 0.0
1.44737247091 0.0149126946942 0.0
1.47501693482 -0.000816776802964 0.0
1.4691392641 0.0304899109069 0.0
1.46867086046 -0.0196203454128 0.0
1.41069092912 0.00932686747424 0.0
1.35189478232 0.00886529385153 0.0
1.31538112209 -0.00112667886294 0.0
1.47691711071 -0.0026403761295 0.0
1.47278170346 -0.0054939585828 0.0
1.46094861795 0.0226983951964 0.0
1.43991797328 0.00155381052317 0.0
1.4832278371 -0.0255493528661 0.0
1.44824107802 -0.0105187424509 0.0
1.46224165444 -0.0373772803399 0.0
1.45526216518 0.00763039172722 0.0
1.4364255503 0.00610686715435 0.0
1.45023113348 -0.0153634079892 0.0
1.44793439909 -0.0305474930847 0.0
1.44557724685 -0.0207131398885 0.0
1.44969863207 -0.0435822504925 0.0
0.869243765238 0.0135806394973 0.0
0.888326165497 0.00328079415419 0.0
0.817703736845 0.0084155104685 0.0
0.838301801311 0.00183960149238 0.0
0.920470947392 -0.0409451457305 0.0
0.881014378689 -0.016484912101 0.0
0.812119915398 -0.0171829101405 0.0
0.848562877491 -0.0235218746365 0.0
0.847051387163 -0.0232733771062 0.0
0.906110590875 0.0793362047006 0.0
0.945961644497 -0.0247455463994 0.0
1.12471846726 0.177407323675 0.0
0.866074458335 -0.00518467536313 0.0
0.865236836433 0.0140079509893 0.0
1.10653615126 0.0279660320407 0.0
1.3133111037 -0.00325629112282 0.0
1.21956610578 -0.0977179952724 0.0
0.947530234588 0.00279552147568 0.0
0.761511373873 0.000355514063297 0.0
0.786617123475 -0.00856155049404 0.0
0.866186329526 -0.0232145669304 0.0
0.830096085444 0.0207747781628 0.0
0.759534072688 -0.00731397721946 0.0
0.835366523673 -0.0140270762656 0.0
0.82150177757 -0.0293435957192 0.0
0.863786914887 -0.00638317700604 0.0
0.793311693521 -0.0196873423835 0.0
1.3914278737 -0.00610009341706 0.0
1.34885617518 0.0305374425035 0.0
0.784366017092 -0.00363496471245 0.0
1.3869412308 -0.018906388081 0.0
1.38393082206 0.000873617559476 0.0
0.905364903136 0.0239147064312 0.0
0.86174194164 0.169659630281 0.0
1.40243390574 -0.0284521080234 0.0
1.39326225147 -0.0272709898775 0.0
0.841859308802 -0.00643366094104 0.0
0.922471595577 0.0284036482579 0.0
1.40815290179 -0.0341585200233 0.0
1.38903949013 -0.0215016045549 0.0
1.37096947785 0.00393461971354 0.0
1.41581232367 -0.0180310684334 0.0
0.842851644217 0.0494559230219 0.0
1.40993673678 0.00318485627516 0.0
1.31429756603 0.0443133672485 0.0
1.3430973669 0.00791619217183 0.0
1.30749545982 -0.00440468457527 0.0
1.26331367171 -0.0127516417593 0.0
1.28060659509 0.0303538940978 0.0
1.2640310229 0.0146204673666 0.0
1.30498447586 0.0182318282715 0.0
1.28346727506 -0.0393666395419 0.0
1.26556222067 -0.0167990455221 0.0
1.3085058879 -0.0124215790722 0.0
1.25436831842 -0.00819421474112 0.0
1.25741223243 -0.0230922874768 0.0
1.29196449919 -0.0304671499833 0.0
1.30765759159 -0.0147146105965 0.0
1.25124617498 -0.00266849328164 0.0
1.27294312397 0.0119677109319 0.0
1.28672156629 -0.0215527005143 0.0
1.30886495118 -0.0219374871439 0.0
1.28017558368 -0.00237339487015 0.0
1.31090754229 -0.0318275997321 0.0
1.24448763895 -0.0409307859551 0.0
1.31473603734 0.0147986629548 0.0
1.25439116226 -0.011191411004 0.0
1.31818090964 -0.000929539082784 0.0
1.25608423771 -0.03048979153 0.0
1.29608322418 -0.0187213064829 0.0
1.22385645257 0.0566403081708 0.0
1.36223799844 0.0134248059974 0.0
1.26379686359 -0.032792615206 0.0
1.27967725035 -0.0265647657296 0.0
1.3249129698 0.0254030329681 0.0
1.3323247889 0.0469305716915 0.0
0.866094580491 -0.102607610343 0.0
1.31305490683 0.0104052934753 0.0
1.30133558299 0.0525143890054 0.0
1.47070838185 0.0421695019836 0.0
1.46451697862 0.0465448144851 0.0
1.31672440958 0.00560451671979 0.0
1.00358040257 0.0869860770225 0.0
0.712161941038 0.000214162258081 0.0
1.13008105872 0.147913236194 0.0
1.036095583 -0.0903427591315 0.0
1.28653832696 0.00134399780793 0.0
1.36139400891 0.00648436522299 0.0
1.2681368562 0.0404528004886 0.0
1.43229475613 -0.0242836430626 0.0
1.39272573583 0.0365743725438 0.0
0.883146448953 0.0701227155828 0.0
0.717551391661 0.0447223056695 0.0
1.1166838845 -0.128550065985 0.0
0.822085199118 -0.0514068746537 0.0
1.42853201201 -0.0406259831831 0.0
1.42896504185 0.00388881731951 0.0
0.595444873219 0.0324175183466 0.0
0.610244004052 0.0106017457312 0.0
0.708113469677 -0.0165217235933 0.0
1.44419339038 -0.0152340116157 0.0
1.4379932564 -0.0469646636799 0.0
1.42235620932 0.0213428209277 0.0
1.38656085559 0.0259533226504 0.0
1.44617002728 -0.0128477573876 0.0
1.43694688778 -0.0359181059599 0.0
1.44985621745 0.00785482544586 0.0
1.41949041627 -0.000837682058844 0.0
0.631322070781 -0.00204329002584 0.0
0.706648889067 -0.0229320856399 0.0
1.44761741073 0.0222243103172 0.0
0.673877772567 -0.0103729638765 0.0
0.659975324267 -0.0261073345917 0.0
0.735810728548 -0.00153715642497 0.0
0.60548886148 -0.0199328974862 0.0
0.735250110874 -0.0114895373447 0.0
0.708415700733 -0.00484465457297 0.0
0.758982542659 -0.00202043878735 0.0
0.628644409379 -0.00926605898263 0.0
0.852597917779 0.0354758270499 0.0
0.603967898496 -0.0248283855128 0.0
0.747809607255 -0.0123092190948 0.0
0.62557478125 -0.0170265164324 0.0
0.541133684886 0.0410616205642 0.0
1.20410075604 -0.0358080858282 0.0
0.898245192975 0.022047253603 0.0
0.577644426814 0.0351761738521 0.0

SCALARS scalar1 double
LOOKUP_TABLE default
3.8426137842
4.91277529249
6.91150575373
5.4597621966
-5.9930287607
-2.38643590763
10.4864158585
8.97572707339
6.42589120432
5.50422623971
5.07525897775
4.87389792647
4.85194604738
4.77028596025
5.21504127181
5.26923685432
5.5542746825
5.88103989992
6.21563429504
6.40009847686
6.53508099402
6.83448476483
6.77874255541
6.74188027248
6.80423204753
6.54369922861
6.25832135716
6.33408005795
6.27631178303
5.81771118231
7.2040891467
4.10199862536
6.81264450195
5.39075661783
5.48846395444
5.25643555564
5.03689498857
5.12816949807
5.15171098591
5.31359339526
5.48764987112
5.71059345682
5.9426143179
6.07553404434
6.35008496739
6.92946340974
6.59653117661
7.03171475269
6.9148047241
6.3472849461
6.43429310923
6.11989299104
6.47361591932
5.71892490459
3.40835245792
1.24144321862
-0.936213488862
-3.19029502473
-5.92444995915
-5.72597057898
-4.95425041243
-4.53807653599
-4.85161873998
-4.49285509238
-4.84332222136
-4.83416304498
-4.66984955844
-5.00852519328
-5.20809356128
-5.1842667955
-5.714885373
-5.79119829633
-5.83696805395
-6.46101246759
-6.36488179614
-6.36030804725
-6.91779882457
-8.13249367278
-5.44779987694
-6.34447767786
-6.11442791679
-5.91933413364
-5.87244182396
-4.6065378708
-6.42320890864
-4.96443806091
-4.63652639224
-4.95471971511
-4.74950360422
-4.52329762433
-4.89463157314
-4.93957210054
-4.81859424877
-5.27712207466
-5.57192261479
-5.50903343528
-5.9945432893
-6.60946384009
-6.51711324889
-6.99692544688
-8.13469580835
-7.52939257428
-7.71005647379
-8.16383617291
-8.90101513628
-10.7667111746
-11.3539226148
2.74447737215
-0.0569808223469
-0.00520660042476
-3.06226921572
-0.0351304785092
0.514968973987
0.701287083821
0.484790217985
0.677297488253
0.67008101333
0.945480159856
0.855941671028
1.04471879079
0.773684407317
1.09479008824
0.580781346563
0.987759647792
0.0236863491574
0.192386353168
0.0361153815845
2.36419800429
-0.984040276218
-1.73663471906
-1.36467169539
-1.86818623748
-1.35917056163
-1.64650096614
-1.54475568088
-1.5259348803
-1.448306536
-1.55371650167
2.03161141261
1.06350894278
-1.26263303241
-1.5373696601
2.02488067207
1.59485022365
-0.307451784838
-1.42724722478
2.1852920181
2.32856772477
1.58884093107
1.90488000636
2.020943336
2.27854750572
1.91630085294
2.13355795288
2.03316853952
0.827173574563
-2.05525545875
-1.98636204741
-1.93194233992
1.77407072441
2.05608740145
1.37968345019
2.73141344933
2.72681948372
2.20313597609
-2.49982463398
-2.03537114331
-1.65868369651
-2.88454588269
2.68335647631
2.50585678612
-2.51885897221
-2.51177660666
-2.48345166498
-2.47491094715
-2.52097616096
-2.38085283918
-2.59680869002
-2.36130823819
3.41352340421
3.40986947877
3.29892472267
3.70224964333
3.2597862574
3.70787839525
3.3046243188
4.15006805553
3.91086562119
-3.2645661155
-2.52557758564
-2.86778219479
-2.65374717336
2.22019790394
-0.0500122883268
0.0922531475381
-4.01765288603
-2.61063488611
0.168031850903
-0.0859778995078
3.62136938079
3.45799681106
3.75716337686
-0.528676833219
-3.49575755662
-3.47293919644
-3.74285963268
-2.71253735165
-3.28246444352
-3.57589051699
-3.19241171202
-3.69542128821
-3.30213774252
-3.73821298801
-3.76193648215
3.42051872753
3.89172128345
3.39822872774
3.71866801838
3.68724784871
3.44676945055
3.43719378448
3.86126630582
-0.156975755267
-0.108967825952
3.68790637204
3.84726500565
0.390765499519
0.479151141661
3.70203268044
4.02962889742
3.57448319637
4.16971096639
3.58634560141
4.22118603462
3.81186913462
0.376728685301
0.557128954505
0.233843901671
0.602252655293
0.0320113758974
0.56066918655
0.273230823819
0.370008938512
0.360950868409
0.217926740004
0.122643254418
0.321717882895
0.247999956033
0.462808230927
0.33451630751
0.308698274082
0.444673176513
0.388227156228
0.662963368398
0.150400755281
0.657993589982
0.355386855218
0.589367328258
0.465096173611
3.67920907654
3.56833056718
4.15798732725
3.90095362592
3.56374077194
3.60500858841
4.20041273818
3.76173788259
3.94966935795
-3.37796603276
-3.08083727343
0.113841730121
-3.99917942368
-3.76344109656
-2.63937930561
1.96919658667
-0.445921453186
-3.49853272756
-4.1457847816
-3.96750096581
-3.71346742905
-3.47929269343
-4.25154988242
-3.71429599543
-3.85594787545
-3.53081333973
-4.04667524294
-1.15625181601
-0.407011357224
-4.15952826765
-1.21237132627
-1.0470433477
-3.40611352528
3.99706312819
-1.09886842608
-1.16884418158
4.07371053882
-3.28327948603
-1.02079649063
-1.21168401849
-1.32608460759
-0.964963232918
4.0255387021
-1.04732591558
-1.63416726206
-1.49447830756
1.93474830607
1.49433522851
2.11788724893
2.33056573003
1.58940576543
2.0677144226
1.97513217769
1.98653475914
2.31697550945
2.16802543632
2.10242360705
1.9290083565
1.08390235056
2.19952884584
1.76932775515
1.88294030252
1.54529927025
1.88964738609
0.845019185322
1.88664087156
2.28830766909
1.66487705918
2.2390327919
1.93285382757
0.33766332176
-1.48596786744
2.14604209793
2.0319086215
-1.40480319003
-1.39311305389
3.71105328163
1.60760547688
1.99371182962
0.512710643424
0.460777067443
-1.90796123564
1.17752217981
-4.53463470924
-3.25607433512
-1.51804334293
2.23066069187
-1.35349737385
0.0532941499573
-0.800730943739
-0.340089786852
-3.63229840001
4.1371520069
3.87644324109
-4.16119679056
-0.826568246665
-0.721488972152
-4.45898062132
-4.43190817689
-3.71927715334
-0.68581150288
-0.769216225787
-1.10434343562
-1.28463013295
-0.616603642814
-0.843571814826
-0.593365492382
-1.00578997895
-4.32838387489
-3.87385370334
-0.771005104006
-4.18646739999
-4.14017298538
-4.09223383012
-4.43041655025
4.64782073294
4.0441289354
3.99635834031
4.52981124414
-3.98242779349
-4.58464652263
4.13752704852
4.54314546095
4.52357300316
1.2594264134
-4.01527093377
-4.48909142109

SCALARS scalar2 double
LOOKUP_TABLE default
3.8426137842
4.91277529249
6.91150575373
5.4597621966
-5.9930287607
-2.38643590763
10.4864158585
8.97572707339
6.42589120432
5.50422623971
5.07525897775
4.87389792647
4.85194604738
4.77028596025
5.21504127181
5.26923685432
5.5542746825
5.88103989992
6.21563429504
6.40009847686
6.53508099402
6.83448476483
6.77874255541
6.74188027248
6.80423204753
6.54369922861
6.25832135716
6.33408005795
6.27631178303
5.81771118231
7.2040891467
4.10199862536
6.81264450195
5.39075661783
5.48846395444
5.25643555564
5.03689498857
5.12816949807
5.15171098591
5.31359339526
5.48764987112
5.71059345682
5.9426143179
6.07553404434
6.35008496739
6.92946340974
6.59653117661
7.03171475269
6.9148047241
6.3472849461
6.43429310923
6.11989299104
6.47361591932
5.71892490459
3.40835245792
1.24144321862
-0.936213488862
-3.19029502473
-5.92444995915
-5.72597057898
-4.95425041243
-4.53807653599
-4.85161873998
-4.49285509238
-4.84332222136
-4.83416304498
-4.66984955844
-5.00852519328
-5.20809356128
-5.1842667955
-5.714885373
-5.79119829633
-5.83696805395
-6.46101246759
-6.36488179614
-6.36030804725
-6.91779882457
-8.13249367278
-5.44779987694
-6.34447767786
-6.11442791679
-5.91933413364
-5.87244182396
-4.6065378708
-6.42320890864
-4.96443806091
-4.63652639224
-4.95471971511
-4.74950360422
-4.52329762433
-4.89463157314
-4.93957210054
-4.81859424877
-5.27712207466
-5.57192261479
-5.50903343528
-5.9945432893
-6.60946384009
-6.51711324889
-6.99692544688
-8.13469580835
-7.52939257428
-7.71005647379
-8.16383617291
-8.90101513628
-10.7667111746
-11.3539226148
2.74447737215
-0.0569808223469
-0.00520660042476
-3.06226921572
-0.0351304785092
0.514968973987
0.701287083821
0.484790217985
0.677297488253
0.67008101333
0.945480159856
0.855941671028
1.04471879079
0.773684407317
1.09479008824
0.580781346563
0.987759647792
0.0236863491574
0.192386353168
0.0361153815845
2.36419800429
-0.984040276218
-1.73663471906
-1.36467169539
-1.86818623748
-1.35917056163
-1.64650096614
-1.54475568088
-1.5259348803
-1.448306536
-1.55371650167
2.03161141261
1.06350894278
-1.26263303241
-1.5373696601
2.02488067207
1.59485022365
-0.307451784838
-1.42724722478
2.1852920181
2.32856772477
1.58884093107
1.90488000636
2.020943336
2.27854750572
1.91630085294
2.13355795288
2.03316853952
0.827173574563
-2.05525545875
-1.98636204741
-1.93194233992
1.77407072441
2.05608740145
1.37968345019
2.73141344933
2.72681948372
2.20313597609
-2.49982463398
-2.03537114331
-1.65868369651
-2.88454588269
2.68335647631
2.50585678612
-2.51885897221
-2.51177660666
-2.48345166498
-2.47491094715
-2.52097616096
-2.38085283918
-2.59680869002
-2.36130823819
3.41352340421
3.40986947877
3.29892472267
3.70224964333
3.2597862574
3.70787839525
3.3046243188
4.15006805553
3.91086562119
-3.2645661155
-2.52557758564
-2.86778219479
-2.65374717336
2.22019790394
-0.0500122883268
0.0922531475381
-4.01765288603
-2.61063488611
0.168031850903
-0.0859778995078
3.62136938079
3.45799681106
3.75716337686
-0.528676833219
-3.49575755662
-3.47293919644
-3.74285963268
-2.71253735165
-3.28246444352
-3.57589051699
-3.19241171202
-3.69542128821
-3.30213774252
-3.73821298801
-3.76193648215
3.42051872753
3.89172128345
3.39822872774
3.71866801838
3.68724784871