# vtk DataFile Version 2.0
2D Simulation Python
ASCII
DATASET UNSTRUCTURED_GRID
FIELD FieldData 1
NODES 1 2 int
386 659

POINTS 386 double
0.0 1.0 0.0
1.725 1.018926023551541 0.0
8.275 0.9810739764484588 0.0
10.0 1.0 0.0
10.0 -1.1209400817235528e-17 0.0
0.0 0.0 0.0
0.1916666666663293 1.0054583434508961 0.0
0.3833333333324708 1.0106015688733672 0.0
0.574999999998553 1.0151327504566057 0.0
0.7666666666645966 1.018790296562094 0.0
0.9583333333312576 1.0213630517856418 0.0
1.149999999998384 1.0227024872629518 0.0
1.341666666665662 1.02273127545488 0.0
1.533333333332819 1.021447754377646 0.0
1.92348484848444 1.0151654045883545 0.0
2.121969696968978 1.010466195994128 0.0
2.320454545453434 1.0051192326381184 0.0
2.518939393937826 0.9994554390488644 0.0
2.717424242422235 0.9938253484353018 0.0
2.915909090906411 0.9885774081231188 0.0
3.1143939393908 0.9840364140867612 0.0
3.312878787875129 0.9804834092679052 0.0
3.511363636359531 0.978138289776974 0.0
3.709848484843827 0.9771461954831309 0.0
3.90833333332816 0.9775685272815354 0.0
4.106818181812215 0.9793791469808472 0.0
4.305303030296804 0.9824659950006263 0.0
4.503787878781365 0.9866380257589933 0.0
4.702272727265711 0.9916370315182357 0.0
4.900757575750005 0.9971536229083735 0.0
5.099242424235156 1.0028463770912033 0.0
5.297727272720327 1.0083629684813908 0.0
5.496212121205663 1.0133619742407036 0.0
5.694696969690998 1.0175340049991486 0.0
5.89318181817668 1.0206208530190144 0.0
6.09166666666213 1.0224314727184094 0.0
6.290151515147423 1.0228538045168822 0.0
6.488636363633031 1.0218617102230891 0.0
6.687121212118713 1.019516590732187 0.0
6.885606060604342 1.0159635859133391 0.0
7.084090909089381 1.0114225918769861 0.0
7.282575757574369 1.006174651564792 0.0
7.481060606059355 1.0005445609512167 0.0
7.679545454544343 0.994880767361944 0.0
7.878030303029329 0.9895338040059153 0.0
8.076515151514705 0.9848345954116637 0.0
8.46666666666447 0.9785522456223813 0.0
8.658333333329285 0.9772687245451367 0.0
8.84999999999549 0.977297512737026 0.0
9.041666666661694 0.978636948214285 0.0
9.233333333327899 0.9812097034377832 0.0
9.42499999999549 0.9848672495432657 0.0
9.616666666663775 0.9893984311265371 0.0
9.808333333331985 0.9945416565490568 0.0
10.0 0.7999999999999998 0.0
10.0 0.6000000000013869 0.0
10.0 0.4000000000016644 0.0
10.0 0.2000000000008322 0.0
9.799999999999999 -0.005690752277237902 0.0
9.6 -0.011023933659773999 0.0
9.399999999999999 -0.015664440747274574 0.0
9.2 -0.01932069341284068 0.0
8.999999999999998 -0.021762955854738135 0.0
8.799999999999997 -0.022837771741729518 0.0
8.599999999999998 -0.022477606438738872 0.0
8.399999999999997 -0.0207050904563484 0.0
8.199999999999998 -0.017631597492589524 0.0
7.999999999999997 -0.013450246413891597 0.0
7.799999999999997 -0.008423766886462788 0.0
7.599999999999998 -0.002867991105110071 0.0
7.399999999999997 0.0028679911051102494 0.0
7.199999999999998 0.008423766886462916 0.0
6.999999999999997 0.013450246413891743 0.0
6.799999999999997 0.01763159749258963 0.0
6.599999999999998 0.020705090456348472 0.0
6.399999999999997 0.022477606438738907 0.0
6.199999999999998 0.02283777174172951 0.0
5.999999999999997 0.02176295585473809 0.0
5.799999999999998 0.01932069341284062 0.0
5.599999999999998 0.0156644407472745 0.0
5.399999999999999 0.011023933659773949 0.0
5.199999999999998 0.005690752277237808 0.0
4.999999999999999 -4.625294245917987e-17 0.0
4.799999999999999 -0.005690752277237877 0.0
4.599999999999999 -0.01102393365977401 0.0
4.399999999999999 -0.015664440747274584 0.0
4.199999999999999 -0.019320693412840668 0.0
3.999999999999999 -0.02176295585473812 0.0
3.799999999999999 -0.02283777174172951 0.0
3.599999999999999 -0.022477606438738883 0.0
3.399999999999998 -0.020705090456348423 0.0
3.199999999999998 -0.017631597492589527 0.0
2.999999999999999 -0.013450246413891642 0.0
2.799999999999998 -0.008423766886462831 0.0
2.599999999999998 -0.0028679911051100663 0.0
2.399999999999999 0.0028679911051101635 0.0
2.199999999999999 0.008423766886462913 0.0
1.999999999999998 0.013450246413891722 0.0
1.799999999999999 0.0176315974925896 0.0
1.6 0.02070509045634844 0.0
1.4 0.022477606438738883 0.0
1.199999999999999 0.02283777174172951 0.0
0.9999999999999982 0.021762955854738093 0.0
0.7999999999999989 0.01932069341284064 0.0
0.6000000000000014 0.015664440747274577 0.0
0.3999999999999986 0.011023933659773938 0.0
0.1999999999999993 0.005690752277237824 0.0
0.0 0.1999999999995579 0.0
0.0 0.3999999999989749 0.0
0.0 0.5999999999989468 0.0
0.0 0.7999999999994734 0.0
0.6628500013231412 0.5405654677183617 0.0
9.337149998673484 0.5385064542930371 0.0
8.746291501696788 0.5542526757710984 0.0
1.2537084982997257 0.5567148763228751 0.0
8.171059125451047 0.5542941477365688 0.0
1.8289408719987896 0.5561451467611841 0.0
2.421450940313616 0.573556451704353 0.0
7.578544161380208 0.5731548626085761 0.0
3.0192472831710826 0.5727818567689478 0.0
6.980449585649829 0.5752737167170893 0.0
3.615808161770378 0.5719335144012277 0.0
6.3794829232134225 0.5733333411093156 0.0
4.216573131695614 0.5690943317210533 0.0
5.801063703726034 0.5183982762868597 0.0
4.794981088194981 0.5157698111371172 0.0
5.298020799794109 0.513422332392698 0.0
9.674120290358726 0.6958888305792897 0.0
0.32587970963895063 0.698722377591725 0.0
4.521244957580922 0.3236121002806106 0.0
3.906216511158977 0.3475169130018367 0.0
6.075952379597787 0.32907610930838727 0.0
3.3076975448034456 0.3486858378590382 0.0
6.69098574218421 0.35297486039536174 0.0
7.887155842830986 0.3472414256478446 0.0
2.112843631575576 0.3496525866356667 0.0
2.7102077628845773 0.3502663245921966 0.0
7.289721687622697 0.35207717637773694 0.0
9.037261619947241 0.6620497783041537 0.0
0.9627383800480465 0.6673651465740386 0.0
1.525436968594543 0.3495399302498225 0.0
8.474563031403745 0.3442750692987325 0.0
8.464643305761154 0.665196304165543 0.0
1.5353566942362709 0.6704930326287689 0.0
0.9792581989383061 0.35925303442669043 0.0
9.020741801059067 0.35393081807273474 0.0
4.517575841069773 0.6743011175837117 0.0
3.9098154879458646 0.676137618837395 0.0
6.078081767545212 0.6804795863693938 0.0
2.111405222762188 0.6749805513722618 0.0
7.888594711561699 0.6722436782596027 0.0
3.312978311506239 0.6768651662262402 0.0
6.686044555319043 0.682474377131014 0.0
2.716736516321477 0.6788367307288816 0.0
7.2832334516146355 0.6806834491586938 0.0
0.33609102309986916 0.30258403004959894 0.0
9.66390897689907 0.2996939385370749 0.0
5.5832996575167115 0.31707860917105707 0.0
5.013959987364985 0.31412387492909505 0.0
5.5112449799334575 0.6896328494652104 0.0
5.084233952263001 0.6873029347518422 0.0
0.665131657036554 0.7335561226947286 0.0
9.33486834295888 0.727371503827476 0.0
8.751210182575663 0.7275297068896012 0.0
1.2487898174200476 0.7357232107827766 0.0
8.67486155471645 0.26124532759307884 0.0
1.32513844528184 0.2698021053506886 0.0
0.683500013628104 0.23610962888281103 0.0
9.316499986370408 0.22877546421127276 0.0
8.17576610458645 0.7290471179642658 0.0
1.8242338954121002 0.7351966921791069 0.0
8.089206627117843 0.2605809556801402 0.0
1.9107933293351809 0.2663460585259516 0.0
7.493459569926495 0.26601658988685417 0.0
2.5065238629497455 0.26583088273139205 0.0
6.8950227770632395 0.2690315017250082 0.0
3.104481960627253 0.2631173868614497 0.0
6.2935442344656245 0.26203792855134217 0.0
3.7027574013282143 0.261653248671743 0.0
2.4174838741315288 0.7984604293929476 0.0
7.58251487744278 0.7966446752185172 0.0
3.0152888294279725 0.7925420620278223 0.0
6.984579126522715 0.8035466609221606 0.0
3.611164694353314 0.789032592200632 0.0
6.386292987050864 0.8066672123619594 0.0
4.2093225077661724 0.789722060796645 0.0
5.796747921960381 0.846386807323897 0.0
4.798654602028028 0.8343914796644766 0.0
5.299192275769282 0.1856032889210284 0.0
4.3041169783869915 0.25399733536244234 0.0
4.73785688285914 0.2281600277640489 0.0
5.860044608892601 0.23651474483071638 0.0
5.2977391886183165 0.7133715066923874 0.0
0.1974053972317854 0.5004621568273783 0.0
9.80259460276718 0.49968804240883913 0.0
9.48449792087016 0.1543656011218455 0.0
0.5155020791290185 0.16574102424826637 0.0
9.564502481708194 0.5070700689296133 0.0
0.4354975182895517 0.5085106237550816 0.0
9.506645713531508 0.8280278905124752 0.0
0.4933542864643878 0.8389209397617418 0.0
9.822122918926134 0.8244889876147357 0.0
0.17787708107243366 0.828022753892689 0.0
7.696126709725396 0.17786384907964978 0.0
2.303870711552226 0.18231224355146333 0.0
8.87815653009869 0.17632639164619462 0.0
1.1218434698999635 0.1944538379006836 0.0
7.09752628203202 0.1851937005180426 0.0
2.9023304349767436 0.17602685475147356 0.0
6.497763244762941 0.18743660775196816 0.0
3.5009703247307127 0.17170516088683013 0.0
1.7087389170383571 0.18675686933842509 0.0
8.291261081345459 0.17110990011651583 0.0
4.100628541844563 0.1699879374630825 0.0
8.580886556054413 0.8131166935244133 0.0
1.419113443942006 0.8310645943702032 0.0
8.924409906570467 0.8123063847597433 0.0
1.0755900934241376 0.83021743055545 0.0
0.8429566496570551 0.8288235841907267 0.0
9.157043350337235 0.8126623042077699 0.0
8.349736491383236 0.8138898783935413 0.0
1.6502635086148765 0.8301180515301727 0.0
5.595347553037771 0.4972105006946613 0.0
5.000807279580413 0.49531415237150345 0.0
7.793438774484144 0.8245562797198868 0.0
2.206561143884074 0.8315044699974113 0.0
7.785675956048162 0.5288045462954932 0.0
2.214323283726069 0.529735907928543 0.0
2.8101580890505877 0.8261742051452913 0.0
7.189812478479017 0.8340409116305112 0.0
3.405966761668991 0.8207763374855688 0.0
6.593169945560435 0.8393315795838877 0.0
4.002439496482061 0.8201780470888038 0.0
5.989231933448029 0.8461353282017279 0.0
4.60622497967805 0.8307040630419824 0.0
7.186290367162964 0.5327672791402953 0.0
2.813606139147422 0.5315198302308605 0.0
6.587654188022141 0.5325875386606429 0.0
3.410222050701234 0.530728302060556 0.0
5.986514023146305 0.5193440023250281 0.0
4.008606063917062 0.5295190037969227 0.0
4.6095837780919435 0.5162599860812451 0.0
8.555987496597924 0.5255294453471409 0.0
[...]
POINT_DATA 386
VECTORS vector double
1.0 0.0 0.0
0.0 0.0 0.0
0.0 0.0 0.0
0.0 0.0 0.0
0.0 0.0 0.0
1.0 0.0 0.0
0.0 0.0 0.0
0.0 0.0 0.0
0.0 0.0 0.0
0.0 0.0 0.0
0.0 0.0 0.0
0.0 0.0 0.0
0.0 0.0 0.0
0.0 0.0 0.0
0.0 0.0 0.0
0.0 0.0 0.0
0.0 0.0 0.0
0.0 0.0 0.0
0.0 0.0 0.0
0.0 0.0 0.0
0.0 0.0 0.0
0.0 0.0 0.0
0.0 0.0 0.0
0.0 0.0 0.0
0.0 0.0 0.0
0.0 0.0 0.0
0.0 0.0 0.0
0.0 0.0 0.0
0.0 0.0 0.0
0.0 0.0 0.0
0.0 0.0 0.0
0.0 0.0 0.0
0.0 0.0 0.0
0.0 0.0 0.0
0.0 0.0 0.0
0.0 0.0 0.0
0.0 0.0 0.0
0.0 0.0 0.0
0.0 0.0 0.0
0.0 0.0 0.0
0.0 0.0 0.0
0.0 0.0 0.0
0.0 0.0 0.0
0.0 0.0 0.0
0.0 0.0 0.0
0.0 0.0 0.0
0.0 0.0 0.0
0.0 0.0 0.0
0.0 0.0 0.0
0.0 0.0 0.0
0.0 0.0 0.0
0.0 0.0 0.0
0.0 0.0 0.0
0.0 0.0 0.0
1.05634213989 0.0720417649231 0.0
1.12603402273 -0.0145853861686 0.0
1.11063160887 0.00417817428835 0.0
1.12163227407 -0.0632450308009 0.0
0.0 0.0 0.0
0.0 0.0 0.0
0.0 0.0 0.0
0.0 0.0 0.0
0.0 0.0 0.0
0.0 0.0 0.0
0.0 0.0 0.0
0.0 0.0 0.0
0.0 0.0 0.0
0.0 0.0 0.0
0.0 0.0 0.0
0.0 0.0 0.0
0.0 0.0 0.0
0.0 0.0 0.0
0.0 0.0 0.0
0.0 0.0 0.0
0.0 0.0 0.0
0.0 0.0 0.0
0.0 0.0 0.0
0.0 0.0 0.0
0.0 0.0 0.0
0.0 0.0 0.0
0.0 0.0 0.0
0.0 0.0 0.0
0.0 0.0 0.0
0.0 0.0 0.0
0.0 0.0 0.0
0.0 0.0 0.0
0.0 0.0 0.0
0.0 0.0 0.0
0.0 0.0 0.0
0.0 0.0 0.0
0.0 0.0 0.0
0.0 0.0 0.0
0.0 0.0 0.0
0.0 0.0 0.0
0.0 0.0 0.0
0.0 0.0 0.0
0.0 0.0 0.0
0.0 0.0 0.0
0.0 0.0 0.0
0.0 0.0 0.0
0.0 0.0 0.0
0.0 0.0 0.0
0.0 0.0 0.0
0.0 0.0 0.0
0.0 0.0 0.0
0.0 0.0 0.0
0.0 0.0 0.0
1.0 0.0 0.0
1.0 0.0 0.0
1.0 0.0 0.0
1.0 0.0 0.0
1.10844429263 0.0118844516374 0.0
1.10622898706 0.00572775777972 0.0
1.10882521113 -0.00449885335201 0.0
1.09984166966 0.00162221732222 0.0
1.10746450393 -0.0192449698337 0.0
1.09904411948 -0.00444955594377 0.0
1.07148144573 -0.00524257412767 0.0
1.07941102729 -0.0152476812621 0.0
1.07319014511 -0.00906794237533 0.0
1.0769239051 -0.00939494239159 0.0
1.07435282121 0.00117102722285 0.0
1.06421188555 0.00323146090973 0.0
1.07320357585 0.0109542086064 0.0
1.0865807097 0.0379187022568 0.0
1.09068978176 0.00739480837949 0.0
1.11503068967 0.00209315783362 0.0
1.10681857657 0.00675796487473 0.0
1.08256212741 -0.0547705507517 0.0
1.06579755014 0.0155845924207 0.0
1.07501366885 0.00468080922151 0.0
1.09685566101 0.00508652659746 0.0
1.07419995615 -0.00606925582081 0.0
1.0635166991 -0.0176200755938 0.0
1.08305963508 -0.0244172463731 0.0
1.08376080666 -0.00584294637902 0.0
1.0739060475 -0.0116698708356 0.0
1.07077655812 -0.0230192161252 0.0
1.0849556011 0.00877274829351 0.0
1.08763102835 0.0149569998829 0.0
1.09469579393 -4.91155467584e-05 0.0
1.09791069097 -0.0173293130614 0.0
1.08817208745 -0.00241784075238 0.0
1.08927344016 0.00279608485657 0.0
1.08200125807 0.00174967367236 0.0
1.0870926993 -0.00461825398396 0.0
1.0741991154 0.00760668584439 0.0
1.070912775 0.00297615087796 0.0
1.04305640865 0.0255233691701 0.0
1.07688240019 0.0140757560389 0.0
1.07829849285 -0.0306765591555 0.0
1.07177096353 -0.00860312819171 0.0
1.07355266263 -0.0151313130854 0.0
1.06943086083 -0.0136312154733 0.0
1.07575088769 -0.0153224269661 0.0
1.0752823283 0.0479967750511 0.0
1.10702430301 -0.00369697538614 0.0
1.03907386847 0.0231545590533 0.0
1.07887020037 -0.0155578566817 0.0
1.09031043256 0.0448556666546 0.0
1.02857563995 -0.0345551166644 0.0
1.0874487922 0.0189131969539 0.0
1.08332768049 -0.00647978533059 0.0
1.0733455311 -0.0125688157303 0.0
1.07210679862 -0.00827787121494 0.0
1.07237432103 0.00214893766513 0.0
1.08361573929 0.000495775572681 0.0
1.06850650568 0.00763896097415 0.0
1.07591198987 0.0257998949835 0.0
1.07676593699 -0.0256419855308 0.0
1.07443169119 -0.0155728922465 0.0
1.07178275585 -0.00477817952211 0.0
1.08193692333 -0.00979022666709 0.0
1.05951753045 -0.00483459386816 0.0
1.07195859519 -0.0139112948026 0.0
1.05304448205 0.00153632232858 0.0
1.07026826513 -0.00997643370885 0.0
1.07403727113 -0.00350470418588 0.0
1.07088308721 0.00126369738429 0.0
1.23422050777 -0.0248969860502 0.0
1.24793685915 -0.0254253515883 0.0
1.26132439376 -0.0236204087664 0.0
1.22415249504 -0.0206632745176 0.0
1.27407608563 -0.00693440534825 0.0
1.22194628022 -0.0166217265753 0.0
1.26732034481 0.0089809240104 0.0
1.1321025529 0.0655303802576 0.0
1.19860841431 0.0197644248018 0.0
1.21297762459 -0.00446750688917 0.0
1.08402923177 0.0101690871397 0.0
1.0906173034 0.0276811705715 0.0
1.15020318094 0.0829998670309 0.0
1.11659556807 -0.0382725263414 0.0
1.0309135887 -0.00265923561054 0.0
1.11775746892 -0.00274807534003 0.0
1.10473812359 0.0136921022071 0.0
1.15063077685 0.0230909640627 0.0
1.11806948992 0.000674739213596 0.0
1.09804743905 0.00494224328182 0.0
1.14769614144 0.00249819765025 0.0
1.11854551233 0.00680446153302 0.0
1.03792057119 -0.0470959212808 0.0
1.13588158185 -0.124061514385 0.0
1.11924111038 -0.0236905901185 0.0
1.15299422723 -0.0145447784738 0.0
1.1212565858 -0.0188846765938 0.0
1.19561376069 0.0145385908119 0.0
1.14444334392 -0.0205376977788 0.0
1.12993701023 -0.0124300933666 0.0
1.15765386418 -0.0119002775349 0.0
1.11780920585 -2.89360599191e-05 0.0
1.17732766764 -0.00791359558344 0.0
1.10500057018 -0.0191355747077 0.0
1.11611524796 0.0164886159036 0.0
1.21540420158 -0.0141469834572 0.0
1.1324405424 0.0165267155235 0.0
1.20658368044 0.0207553364563 0.0
1.13632302699 -0.00560228756251 0.0
1.130714693 0.0361615303502 0.0
1.20201230889 0.0010089169089 0.0
1.21103956473 0.00279550580101 0.0
1.14056434219 -0.0202433497707 0.0
1.1037289156 0.0238809605367 0.0
1.10443580043 0.00260353340809 0.0
1.23550681487 -0.0466809554091 0.0
1.19206132729 0.0165878021842 0.0
1.09895306938 -0.025018158587 0.0
1.09756427573 -0.00408258907742 0.0
1.2385698355 -0.00429061134425 0.0
1.21053098159 -0.0400703667961 0.0
1.2597357026 0.00667497538146 0.0
1.19866385878 -0.0399899851721 0.0
1.2617612593 0.025937902386 0.0
1.16711221266 0.0358367616348 0.0
1.21353927541 0.0263753457185 0.0
1.09160099634 -0.0198074696709 0.0
1.08869315384 -0.0139960458148 0.0
1.08561955467 -0.0156305716384 0.0
1.0896029549 -0.00583744150404 0.0
1.09197383924 0.0371097884385 0.0
1.08950329242 0.00654096313453 0.0
1.08897373128 0.00882655298703 0.0
1.10947402446 -0.0069895928802 0.0
1.10310469354 -0.00348331975314 0.0
1.10727928587 0.00490437735384 0.0
1.11133781217 0.00947172531438 0.0
1.1097003834 -0.00110746238522 0.0
1.10828133453 0.00482606055697 0.0
1.09018938382 0.00373278827972 0.0
1.10361238107 -0.00682033790535 0.0
1.11119702528 -0.0118240743575 0.0
1.09590419848 -0.00605111344479 0.0
1.09744585158 -0.0223186024337 0.0
1.08722038848 -0.00397814074878 0.0
1.09234750183 0.0169112608816 0.0
1.08686468656 -0.0165773379484 0.0
1.08918516828 -0.00721495650049 0.0
1.08551803672 -0.0205050491916 0.0
1.09503785027 -0.0119373756984 0.0
1.24446619955 -0.00107089752842 0.0
1.26521342786 -0.0107426331953 0.0
1.19981030546 0.0275285683176 0.0
1.1598690209 0.015991316987 0.0
1.22315516568 -0.0442313086016 0.0
1.25571111433 -0.0308376659026 0.0
1.19464576687 0.00429139390716 0.0
1.22862633548 -0.0399116971316 0.0
1.21995607618 -0.00358373126007 0.0
1.19305398479 0.0529149362768 0.0
1.28079710476 0.0228348406272 0.0
1.10509346432 0.134582149963 0.0
1.18846940656 -0.02643981456 0.0
1.12668821471 0.0273987988072 0.0
1.18732088602 -0.00873751116667 0.0
1.12477429349 -0.00600569782661 0.0
1.12974035133 -0.00426801014123 0.0
1.15753437978 -0.0287136941595 0.0
1.06977061128 0.00851399358141 0.0
1.08053431879 -0.0011415730112 0.0
1.13690293423 -0.0432045615956 0.0
1.10384023093 -0.0181043481212 0.0
1.07855905875 -0.00727432631508 0.0
1.11127808904 -0.00760241404996 0.0
1.10787215031 -0.0488670333193 0.0
1.14194054128 -0.00219643941102 0.0
1.08870242291 -0.0420463704105 0.0
1.10138813578 -0.000188941240888 0.0
1.0950405464 -0.000887185027957 0.0
1.08358351087 -0.0257808194605 0.0
1.10275180509 -0.00829403787891 0.0
1.09573500015 -0.0101483585258 0.0
1.17663763566 -0.0161513061602 0.0
1.19673220944 0.0632598140631 0.0
1.07922598448 -0.013778999658 0.0
1.08671164515 -0.011467984528 0.0
1.0858364575 0.0660145718903 0.0
1.24263108732 0.0178920072084 0.0
1.07445552251 -0.0161342345977 0.0
1.08260384519 -0.00637096169415 0.0
1.07579076779 -0.00197646612032 0.0
1.07406055203 -0.00701070332616 0.0
1.17743141183 0.0146783520805 0.0
1.07361998459 0.00543403476986 0.0
1.05837516764 0.0481419930437 0.0
1.08463403099 0.00700878152183 0.0
1.10569562043 -0.0005455203289 0.0
1.10842251891 -0.0114787150274 0.0
1.065726256 0.00995630997287 0.0
1.0528728557 -0.00528521519107 0.0
1.05437328443 0.0404162774685 0.0
1.06288891044 -0.0120825430753 0.0
1.04645798019 -0.00895816723225 0.0
1.05453467562 -0.00783804567943 0.0
1.0538867188 -0.0163425486003 0.0
1.05177105561 -0.0236927170005 0.0
1.06701089458 -0.00636426881089 0.0
1.11672666205 -0.0109738024142 0.0
1.09495651745 0.00984781687047 0.0
1.05838784817 0.0148476620966 0.0
1.11330372106 -0.0116969645073 0.0
1.10855797879 -0.0214901552462 0.0
1.09706522115 0.000854447068935 0.0
1.12012663287 -0.0235902588091 0.0
1.10904011784 0.008792473288 0.0
1.10048003035 0.00873604154914 0.0
1.06026526987 0.00981905355376 0.0
1.03021562298 0.00147767401173 0.0
1.06051276031 -0.00216850840423 0.0
1.05989939152 -0.0197444189099 0.0
1.11827709548 0.0137560089638 0.0
1.12134294297 0.0180565026218 0.0
1.05865369748 -0.00622121772723 0.0
1.05792799678 -0.0245752151515 0.0
1.05266115648 -0.000917025272481 0.0
1.06982720898 -0.0117993993034 0.0
1.14411599358 -0.0708634003241 0.0
1.08985182593 0.0504715292337 0.0
1.06526215802 0.00815305217449 0.0
1.10656497359 -0.0210169251114 0.0
1.11497716472 0.0209622719112 0.0
1.09943501341 0.00164363571386 0.0
1.02443484785 0.0661612154986 0.0
1.0406948367 0.00714023089307 0.0
1.15173632095 0.0766829494846 0.0
1.03702919006 -0.0737075015545 0.0
1.1466791931 -0.0182005257605 0.0
1.09398700059 0.00542334153548 0.0
1.10647594048 0.015945544944 0.0
1.10680219495 -0.00782025067154 0.0
1.11015289027 -0.00066606524439 0.0
1.20415212112 0.0917499994915 0.0
1.09327622986 0.0316313106413 0.0
1.16016693147 -0.06323581099 0.0
1.16491520184 -0.0487274663786 0.0
1.10159595831 -0.0179443839217 0.0
1.10370858109 -0.00801550908669 0.0
1.0088938724 0.0578992386728 0.0
1.01727357723 0.0283760045847 0.0
1.07867506783 -0.0416355050123 0.0
1.08453700883 -0.0141271631719 0.0
1.08848308889 -0.0157810184038 0.0
1.0922652789 0.0128430105866 0.0
1.09952190496 0.0410245942037 0.0
1.08149961022 -0.0109366697911 0.0
1.08562044844 -0.00960114357117 0.0
1.08078465264 0.00121172609507 0.0
1.08412618257 0.000378304284148 0.0
1.02939488739 0.0115522841392 0.0
1.08893235126 -0.0248225700933 0.0
1.08367635063 0.00928264903221 0.0
1.05768685057 0.00215891045142 0.0
1.04437236721 -0.0337080377095 0.0
1.09249243388 0.00521406198652 0.0
1.00696103515 -0.0311563012789 0.0
1.02926147314 0.0374736929893 0.0
1.11636675397 -0.0118195182 0.0
1.15368854479 -0.0125338595689 0.0
1.05275160918 -0.0109457594458 0.0
1.11934639765 0.0279418017068 0.0
1.01274467301 -0.0280853598056 0.0
1.15471987444 -0.0293719288998 0.0
1.06787449472 -0.0263726777955 0.0
1.02261621845 0.0377363862739 0.0
1.17502742148 -0.0438595634974 0.0
1.09131607622 -0.0016585756976 0.0
1.00990002025 0.0481966713123 0.0

SCALARS scalar1 double
LOOKUP_TABLE default
3.28924626111
8.86809972608
10.9386621318
10.7578655855
-8.8738810098
-2.38283842719
10.6033666881
9.77889900948
8.97963409366
8.60664886304
7.6927078892
8.65152209463
8.72822203396
7.67244165288
9.12229859166
8.59432999958
8.33067705334
8.63769998952
10.0106290391
9.05166809612
9.24637750797
10.677820448
9.48505179785
9.54137981776
10.8255530027
9.41744075412
9.24599499547
10.2561724722
9.95544938255
9.63474492825
10.82288088
6.36263843143
9.66900733995
8.27627754212
8.80547423422
8.96632790387
7.97714737407
7.92971205103
8.95773178069
8.02596456878
8.21592075363
9.47790061921
8.61037761869
8.78461065166
9.72104093269
10.7622566893
9.4507222904
11.0691221075
11.0151089388
9.34809228782
10.6349341064
10.6605593184
10.488657424
10.7990813102
0.131797061664
-0.0208933411957
-0.0273321031108
0.2698494019
-10.3288922438
-9.37045776978
-9.54034537745
-8.60423781905
-7.62494611804
-8.23068867627
-9.53923735175
-7.99039831704
-8.58425439258
-9.86088640693
-8.40075544893
-9.24201419059
-10.7464458514
-9.08754037862
-10.1383093879
-11.7961235488
-9.81197555506
-10.7477049943
-12.0901619556
-12.8010862514
-8.77648843047
-10.1783849858
-9.56260894099
-9.01399746985
-9.05109151133
-7.56237654475
-11.0523963491
-10.0073017705
-8.6885656454
-8.12117009801
-9.60882628417
-8.54473218388
-8.09465047893
-9.86414772899
-8.92553747419
-8.54972250219
-10.645441647
-9.70334349428
-9.2741069618
-11.727981016
-10.5407656306
-9.8528797607
-12.3829700928
-10.4602373086
-9.25442826873
-10.648006577
-11.204887096
-11.3010631621
-11.5205499847
2.27639280471
-0.0376815408352
0.00176900270071
-2.73227480456
0.034024102453
0.0108915261411
0.0492376306511
0.0374757268051
0.051801108773
0.0347957087119
0.000252016020439
0.0184354674295
0.0157955894156
0.00833669922828
0.0208918936358
0.0107002695302
0.0211016611669
0.018368452965
0.0369299940117
-0.0370502580238
-0.186985223092
-0.160005817413
0.204809522569
0.155599016369
0.17783959441
0.154906166205
0.0783349754488
0.102255912447
0.120839108569
0.144188865035
0.0829343364913
-0.0871519691436
-0.131599524229
0.116507721027
0.107849225512
-0.105578724814
-0.137949145556
0.0322529522331
0.123579129523
-0.24715667337
-0.289146050683
-0.103160257375
-0.134142884588
-0.279562999748
-0.290618161477
-0.279520524487
-0.283565381475
-0.284615358439
0.2269449818
0.142680955743
0.353284069838
0.0471765883165
-0.107112054871
-0.180976660377
-0.17359854971
-0.369244769
-0.377250922059
-0.34265072542
0.162710585371
0.390592580994
0.304230431863
0.340703012045
-0.375240966722
-0.342678456117
0.174996647595
0.385438762417
0.229796320867
0.380867819039
0.280382474689
0.383516059914
0.32431290567
0.384778998141
-0.783678598668
-0.764625755239
-0.883768614815
-0.632410045594
-0.954366903844
-0.848501626761
-0.950574981103
0.0745357059325
-0.350992145172
0.658441106211
0.378659993292
0.420532174154
0.720776729079
-0.213756528805
-0.0118747224483
-0.00928482483029
-1.010237661
-0.52634176065
-0.0141948142732
0.00465801401211
0.445126615728
1.01725728554
0.697003986724
-0.548108174238
-0.314857433073
0.26239722205
-0.452150378802
0.447092270122
-0.122620899421
0.191434663502
0.083215937766
0.142824047813
0.298782552616
-0.506386940024
0.136124333613
-0.46287471546
0.705426661992
0.237905289247
0.0731633555055
0.580689241783
-0.443224457998
0.243202106127
0.0795004527288
-0.0871463210739
0.0123596485102
0.241321728258
-0.0225611217685
0.0192642666269
0.00657805192607
-0.239238492235
0.568995601395
-0.388729768906
0.692914615837
-0.424894418176
-0.182307775508
-0.133914360995
0.0136762748996
0.0122026069085
0.0141311280618
0.0109959993225
0.0403061428308
0.0109031677753
-0.00078986562008
0.0236571832011
0.0106237259274
0.00236779399477
-0.0046860849677
-0.00519119212372
-0.0094011486647
0.0100353852866
-0.00224803941054
-0.0074477096185
0.00362782895408
0.0368040140363
0.0237285908162
0.0697107312514
0.0239674611284
0.0405111788653
0.0246265646312
0.0415951946921
0.187494388676
0.0320033771182
-0.32651901608
0.611621419976
-0.416016364543
0.138077385545
0.344003452235
0.37787969099
0.0479479189753
-1.20273149522
0.84409601227
0.00135278672919
-0.818960670389
-0.155954844965
-0.163610174081
-0.109237929903
0.0396121338732
-0.827180645356
-1.1750755467
-1.03010779341
-0.877973135635
-1.33439534262
-1.39273541131
-0.643041128172
-1.00992174347
-0.276925765405
-1.14675113116
-0.0173195174144
-0.0236439021329
-1.19132707577
-0.00342724482322
0.00791688873782
-0.194582009057
0.290229736046
0.0216649389101
-0.00224315027093
1.42175651777
0.871060161926
0.0339700340067
-0.0128570035947
-0.0079348493481
0.039670445471
-0.240786041338
0.0458784053117
0.168547567999
0.0643979559086
-0.0460188878312
-0.112737236151
-0.10000487116
-0.204203543613
-0.0929936296482
-0.508798352454
-0.201270917528
-0.557584274492
-0.207190763647
-0.2105172592
-0.515730544226
-0.0967184050281
-0.049287539545
-0.515090079168
-0.116257040583
-0.0756319882049
-0.0520279010675
-0.09850102377
-0.0726753670322
-0.022976797081
-0.533741592409
-0.201525855829
-0.529823930503
-0.211772622643
0.00870089203873
0.0117325898582
-0.526379131454
-0.219560375248
-0.00180051968809
0.0666326228748
3.01989349519
-0.0918089491868
-0.053307703546
0.0295490041536
-0.0808962802691
0.097901587862
0.547346603132
-2.31177075644
-2.26128583496
-0.713398952341
-0.13673838316
0.00966089701617
-0.0353117206211
-0.0824639937256
-0.0955693675592
-2.65715662975
1.97281069926
2.7739442776
-0.615661715551
-0.0827061313061
-0.0835804724792
-3.33048576579
-3.1234926983
-1.58777942964
-0.0532113251496
-0.078940387373
-0.0440360470051
0.0251652793868
-0.0532516836016
-0.0804389894258
-0.0534133670155
-0.0363771047677
-3.04608694112
-1.88414705849
-0.0615346357986
-2.85428379234
-2.30501589595
-2.67011176898
-2.71787506252
2.62764983707
2.30678875562
2.05960769295
2.73802167747
-2.56837168952
-2.71334624445
2.09242429998
2.67116581349
5.44150374254
1.20615646494
-2.62340263501
-3.46056076255

SCALARS scalar2 double
LOOKUP_TABLE default
3.28924626111
8.86809972608
10.9386621318
10.7578655855
-8.8738810098
-2.38283842719
10.6033666881
9.77889900948
8.97963409366
8.60664886304
7.6927078892
8.65152209463
8.72822203396
7.67244165288
9.12229859166
8.59432999958
8.33067705334
8.63769998952
10.0106290391
9.05166809612
9.24637750797
10.677820448
9.48505179785
9.54137981776
10.8255530027
9.41744075412
9.24599499547
10.2561724722
9.95544938255
9.63474492825
10.82288088
6.36263843143
9.66900733995
8.27627754212
8.80547423422
8.96632790387
7.97714737407
7.92971205103
8.95773178069
8.02596456878
8.21592075363
9.47790061921
8.61037761869
8.78461065166
9.72104093269
10.7622566893
9.4507222904
11.0691221075
11.0151089388
9.34809228782
10.6349341064
10.6605593184
10.488657424
10.7990813102
0.131797061664
-0.0208933411957
-0.0273321031108
0.2698494019
-10.3288922438
-9.37045776978
-9.54034537745
-8.60423781905
-7.62494611804
-8.23068867627
-9.53923735175
-7.99039831704
-8.58425439258
-9.86088640693
-8.40075544893
-9.24201419059
-10.7464458514
-9.08754037862
-10.1383093879
-11.7961235488
-9.81197555506
-10.7477049943
-12.0901619556
-12.8010862514
-8.77648843047
-10.1783849858
-9.56260894099
-9.01399746985
-9.05109151133
-7.56237654475
-11.0523963491
-10.0073017705
-8.6885656454
-8.12117009801
-9.60882628417
-8.54473218388
-8.09465047893
-9.86414772899
-8.92553747419
-8.54972250219
-10.645441647
-9.70334349428
-9.2741069618
-11.727981016
-10.5407656306
-9.8528797607
-12.3829700928
-10.4602373086
-9.25442826873
-10.648006577
-11.204887096
-11.3010631621
-11.5205499847
2.27639280471
-0.0376815408352
0.00176900270071
-2.73227480456
0.034024102453
0.0108915261411
0.0492376306511
0.0374757268051
0.051801108773
0.0347957087119
0.000252016020439
0.0184354674295
0.0157955894156
0.00833669922828
0.0208918936358
0.0107002695302
0.0211016611669
0.018368452965
0.0369299940117
-0.0370502580238
-0.186985223092
-0.160005817413
0.204809522569
0.155599016369
0.17783959441
0.154906166205
0.0783349754488
0.102255912447
0.120839108569
0.144188865035
0.0829343364913
-0.0871519691436
-0.131599524229
0.116507721027
0.107849225512
-0.105578724814
-0.137949145556
0.0322529522331
0.123579129523
-0.24715667337
-0.289146050683
-0.103160257375
-0.134142884588
-0.279562999748
-0.290618161477
-0.279520524487
-0.283565381475
-0.284615358439
0.2269449818
0.142680955743
0.353284069838
0.0471765883165
-0.107112054871
-0.180976660377
-0.17359854971
-0.369244769
-0.377250922059
-0.34265072542
0.162710585371
0.390592580994
0.304230431863
0.340703012045
-0.375240966722
-0.342678456117
0.174996647595
0.385438762417
0.229796320867
0.380867819039
0.280382474689
0.383516059914
0.32431290567
0.384778998141
-0.783678598668
-0.764625755239
-0.883768614815
-0.632410045594
-0.954366903844
-0.848501626761
-0.950574981103
0.0745357059325
-0.350992145172
0.658441106211
0.378659993292
0.420532174154
0.720776729079
-0.213756528805
-0.0118747224483
-0.00928482483029
-1.010237661
-0.52634176065