# vtk DataFile Version 2.0
2D Simulation Python
ASCII
DATASET UNSTRUCTURED_GRID
FIELD FieldData 1
NODES 1 2 int
386 659

POINTS 386 double
0.0 1.0 0.0
1.725 1.018926023551541 0.0
8.275 0.9810739764484588 0.0
10.0 1.0 0.0
10.0 -1.1209400817235522e-17 0.0
0.0 0.0 0.0
0.1916666666663293 1.0054583434508961 0.0
0.3833333333324708 1.0106015688733672 0.0
0.574999999998553 1.0151327504566057 0.0
0.7666666666645966 1.0187902965620939 0.0
0.9583333333312576 1.0213630517856418 0.0
1.149999999998384 1.0227024872629518 0.0
1.341666666665662 1.02273127545488 0.0
1.533333333332819 1.021447754377646 0.0
1.92348484848444 1.0151654045883545 0.0
2.121969696968978 1.010466195994128 0.0
2.320454545453434 1.0051192326381184 0.0
2.518939393937826 0.9994554390488644 0.0
2.717424242422235 0.9938253484353018 0.0
2.915909090906411 0.9885774081231188 0.0
3.1143939393908 0.9840364140867612 0.0
3.312878787875129 0.9804834092679052 0.0
3.511363636359531 0.978138289776974 0.0
3.709848484843827 0.9771461954831309 0.0
3.90833333332816 0.9775685272815354 0.0
4.106818181812215 0.9793791469808472 0.0
4.305303030296804 0.9824659950006265 0.0
4.503787878781365 0.9866380257589933 0.0
4.702272727265711 0.9916370315182357 0.0
4.900757575750005 0.9971536229083735 0.0
5.099242424235156 1.0028463770912033 0.0
5.297727272720327 1.0083629684813908 0.0
5.496212121205663 1.0133619742407036 0.0
5.694696969690998 1.0175340049991486 0.0
5.89318181817668 1.0206208530190144 0.0
6.09166666666213 1.0224314727184094 0.0
6.290151515147423 1.0228538045168822 0.0
6.488636363633031 1.0218617102230891 0.0
6.687121212118713 1.019516590732187 0.0
6.885606060604342 1.0159635859133391 0.0
7.084090909089381 1.0114225918769861 0.0
7.282575757574369 1.006174651564792 0.0
7.481060606059355 1.0005445609512167 0.0
7.679545454544343 0.9948807673619442 0.0
7.878030303029329 0.9895338040059153 0.0
8.076515151514705 0.9848345954116637 0.0
8.46666666666447 0.9785522456223813 0.0
8.658333333329285 0.9772687245451367 0.0
8.84999999999549 0.977297512737026 0.0
9.041666666661694 0.978636948214285 0.0
9.233333333327899 0.9812097034377832 0.0
9.42499999999549 0.9848672495432657 0.0
9.616666666663775 0.9893984311265371 0.0
9.808333333331985 0.9945416565490568 0.0
10.0 0.7999999999999998 0.0
10.0 0.6000000000013869 0.0
10.0 0.4000000000016644 0.0
10.0 0.2000000000008322 0.0
9.799999999999999 -0.005690752277237899 0.0
9.6 -0.011023933659773997 0.0
9.399999999999999 -0.01566444074727456 0.0
9.2 -0.019320693412840668 0.0
8.999999999999998 -0.02176295585473812 0.0
8.799999999999997 -0.022837771741729487 0.0
8.599999999999998 -0.02247760643873884 0.0
8.399999999999997 -0.020705090456348385 0.0
8.199999999999998 -0.017631597492589517 0.0
7.999999999999997 -0.013450246413891585 0.0
7.799999999999997 -0.008423766886462784 0.0
7.599999999999998 -0.002867991105110071 0.0
7.399999999999997 0.002867991105110247 0.0
7.199999999999998 0.008423766886462914 0.0
6.999999999999997 0.013450246413891736 0.0
6.799999999999997 0.017631597492589624 0.0
6.599999999999998 0.020705090456348448 0.0
6.399999999999997 0.022477606438738907 0.0
6.199999999999998 0.022837771741729483 0.0
5.999999999999997 0.02176295585473808 0.0
5.799999999999998 0.019320693412840602 0.0
5.599999999999998 0.015664440747274497 0.0
5.399999999999999 0.011023933659773943 0.0
5.199999999999998 0.005690752277237808 0.0
4.999999999999999 -4.6252942459179825e-17 0.0
4.799999999999999 -0.00569075227723787 0.0
4.599999999999999 -0.011023933659773992 0.0
4.399999999999999 -0.01566444074727458 0.0
4.199999999999999 -0.019320693412840668 0.0
3.999999999999999 -0.021762955854738114 0.0
3.799999999999999 -0.022837771741729483 0.0
3.599999999999999 -0.02247760643873887 0.0
3.399999999999998 -0.02070509045634843 0.0
3.199999999999998 -0.01763159749258951 0.0
2.999999999999999 -0.013450246413891627 0.0
2.799999999999998 -0.008423766886462831 0.0
2.599999999999998 -0.0028679911051100624 0.0
2.399999999999999 0.0028679911051101604 0.0
2.199999999999999 0.008423766886462907 0.0
1.999999999999998 0.013450246413891712 0.0
1.799999999999999 0.017631597492589607 0.0
1.6 0.020705090456348427 0.0
1.4 0.022477606438738865 0.0
1.199999999999999 0.022837771741729483 0.0
0.9999999999999982 0.021762955854738072 0.0
0.7999999999999989 0.01932069341284064 0.0
0.6000000000000014 0.015664440747274567 0.0
0.3999999999999986 0.011023933659773921 0.0
0.1999999999999993 0.005690752277237822 0.0
0.0 0.1999999999995579 0.0
0.0 0.3999999999989749 0.0
0.0 0.5999999999989468 0.0
0.0 0.7999999999994734 0.0
0.6588210617100813 0.555066477986475 0.0
9.341178381030055 0.5367054297080875 0.0
8.741490921414712 0.5540735517794154 0.0
1.2585056674970125 0.5805107509270521 0.0
8.16292309554049 0.5628535932563975 0.0
1.8370594681010477 0.5823224621256599 0.0
2.430350983027 0.5989035568373454 0.0
7.5695608649763715 0.5963074393167994 0.0
3.0303963882046787 0.5941872426838534 0.0
6.969105014397801 0.6079661782576271 0.0
3.6285715971692447 0.5883733001837433 0.0
6.368043170479604 0.603352689090206 0.0
4.229327343457401 0.5806116921336795 0.0
5.7951663140191325 0.5387877526002591 0.0
4.802433755051676 0.5248528938602488 0.0
5.298814465238107 0.5247336280644694 0.0
9.677463902342126 0.6955662266947695 0.0
0.3225359593533992 0.7053837334082398 0.0
4.530472708544113 0.33121805030702567 0.0
3.918744662909395 0.35999598425161095 0.0
6.068006367907416 0.3505527128961132 0.0
3.3193240938524875 0.36577586205462725 0.0
6.679721260757775 0.3825450000499555 0.0
7.879060466317176 0.3612822357121804 0.0
2.1209043769427645 0.37320480255971444 0.0
2.720024850891222 0.37201009166295673 0.0
7.279789607544905 0.37810304846653997 0.0
9.037307282287577 0.6600373239023456 0.0
0.9626914832231662 0.6848140392372023 0.0
1.5320222268727839 0.3723989827459002 0.0
8.467970902697745 0.3479547924747919 0.0
8.458357303487354 0.6672833721520666 0.0
1.5416360781439709 0.6923695200624167 0.0
0.979362391556524 0.37746064354028747 0.0
9.020636216113555 0.35295762494582894 0.0
4.527147526395946 0.6832502807551151 0.0
3.9213265813706024 0.6890157599595761 0.0
6.069726784401481 0.7030016321069887 0.0
2.1182986631275313 0.6978971710718755 0.0
7.881669379625895 0.685548875940421 0.0
3.323275813312684 0.6937917809623517 0.0
6.675620759259714 0.7123921775752544 0.0
2.7252877570591356 0.7002996532458537 0.0
7.274536312696455 0.7068958941537248 0.0
0.3328298962890007 0.30858365592656506 0.0
9.667169950332413 0.29861597521648975 0.0
5.58133795242951 0.33018938314677376 0.0
5.017196716422372 0.3216030512512994 0.0
5.509466784374876 0.7017973461549807 0.0
5.087373304871401 0.695515149285262 0.0
0.6618804895746897 0.7450284643491928 0.0
9.33811909609651 0.7259483357300093 0.0
8.747668996434614 0.7265209694452937 0.0
1.2523285031918567 0.7533133815759943 0.0
8.670433244399215 0.2629957559030837 0.0
1.3295634067491482 0.28894573325596673 0.0
0.6803832487167025 0.24637076621643197 0.0
9.319616334770803 0.2273596585648359 0.0
8.169971003391138 0.7347628747604552 0.0
1.830016382354472 0.7546838777891953 0.0
8.082302749943068 0.26929432629440014 0.0
1.917679953876923 0.2866632898175211 0.0
7.48524590838828 0.2854344944936299 0.0
2.514663919428339 0.2854002744608235 0.0
6.88522170963623 0.2944153674625038 0.0
3.1143293022159915 0.2790742269608175 0.0
6.284979699792362 0.2834756780603173 0.0
3.7137176958748217 0.27358037884306713 0.0
2.4223955329494435 0.8135511502234392 0.0
7.577553669254165 0.8103331537667385 0.0
3.0215481970041047 0.805407388218616 0.0
6.978153043477535 0.823172027962024 0.0
3.618404772824245 0.7990040467112968 0.0
6.379511049980826 0.8249362150744898 0.0
4.216841123707324 0.7969889727846379 0.0
5.793613529499292 0.8564444955499483 0.0
4.802553812075323 0.8392641500318275 0.0
5.299576297694156 0.19147355990568116 0.0
4.313824573099249 0.26143999527318296 0.0
4.743171476947935 0.23353055977671455 0.0
5.855749918206447 0.25065687400165815 0.0
5.2983676578649295 0.7221869949025772 0.0
0.1948306735438577 0.5049985005557741 0.0
9.805169232748483 0.49922353064441716 0.0
9.48697273103279 0.1533530226554198 0.0
0.5130270921791544 0.17126876144945996 0.0
9.568941194810522 0.5059005797689078 0.0
0.43105853912954883 0.518414114709498 0.0
9.509148111167 0.8275518023896257 0.0
0.4908517288235297 0.8450881018667403 0.0
9.823688160133432 0.8246086142988511 0.0
0.1763117958835532 0.8308467217692924 0.0
7.690720882162185 0.18886523149362852 0.0
2.3092425872619735 0.19634332125366394 0.0
8.876690404446705 0.17660674409944221 0.0
1.1233082327319224 0.2068572338262865 0.0
7.090924716190003 0.2020422007561046 0.0
2.9088907725181996 0.1881668741477115 0.0
6.491112221999722 0.20402773610934521 0.0
3.5084806475503068 0.18097807911274874 0.0
1.7132809938259814 0.20086799844608053 0.0
8.286711948189996 0.17519523977699097 0.0
4.108079583182084 0.1762372089095706 0.0
8.57759572594929 0.813199798100507 0.0
1.422401366214769 0.8437674955112183 0.0
8.9233591770043 0.8110071738231908 0.0
1.0766397432179096 0.8414343896544334 0.0
0.8418490721619218 0.838363040831511 0.0
9.158150403246719 0.8113361895713282 0.0
8.345891401064755 0.8158977630003643 0.0
1.654102983681674 0.8433119485275048 0.0
5.5924660033935 0.5130385899097979 0.0
5.0052363387487615 0.5044513719735051 0.0
7.7894494026169605 0.8336088734387268 0.0
2.210526088854053 0.8449616190261584 0.0
7.776951029940186 0.5472584665968689 0.0
2.2229977812875736 0.5562760584377135 0.0
2.8152268919633765 0.8385323765325441 0.0
7.184633615860742 0.8503057651909112 0.0
3.4120051817239925 0.8304580860122462 0.0
6.587071094855183 0.8568383028365193 0.0
4.0091590977520575 0.8275434961904499 0.0
5.98485332179886 0.8583163536311255 0.0
4.611317383846415 0.8358985480537917 0.0
7.175250650382985 0.5643417944217117 0.0
2.8244692282582693 0.5555012501548542 0.0
6.575275095476356 0.5660942382078461 0.0
3.422990581135135 0.5493842028837762 0.0
5.978074335699027 0.5434305274693529 0.0
4.022323246011529 0.5432024353152307 0.0
4.619519162278371 0.525670591398383 0.0
8.549065430195173 0.5275472499771633 0.0
[...]
POINT_DATA 386
VECTORS vector double
1.0 0.0 0.0
0.0 0.0 0.0
0.0 0.0 0.0
0.0 0.0 0.0
0.0 0.0 0.0
1.0 0.0 0.0
0.0 0.0 0.0
0.0 0.0 0.0
0.0 0.0 0.0
0.0 0.0 0.0
0.0 0.0 0.0
0.0 0.0 0.0
0.0 0.0 0.0
0.0 0.0 0.0
0.0 0.0 0.0
0.0 0.0 0.0
0.0 0.0 0.0
0.0 0.0 0.0
0.0 0.0 0.0
0.0 0.0 0.0
0.0 0.0 0.0
0.0 0.0 0.0
0.0 0.0 0.0
0.0 0.0 0.0
0.0 0.0 0.0
0.0 0.0 0.0
0.0 0.0 0.0
0.0 0.0 0.0
0.0 0.0 0.0
0.0 0.0 0.0
0.0 0.0 0.0
0.0 0.0 0.0
0.0 0.0 0.0
0.0 0.0 0.0
0.0 0.0 0.0
0.0 0.0 0.0
0.0 0.0 0.0
0.0 0.0 0.0
0.0 0.0 0.0
0.0 0.0 0.0
0.0 0.0 0.0
0.0 0.0 0.0
0.0 0.0 0.0
0.0 0.0 0.0
0.0 0.0 0.0
0.0 0.0 0.0
0.0 0.0 0.0
0.0 0.0 0.0
0.0 0.0 0.0
0.0 0.0 0.0
0.0 0.0 0.0
0.0 0.0 0.0
0.0 0.0 0.0
0.0 0.0 0.0
0.91136654103 0.0923919620996 0.0
1.38484931364 0.00495408532823 0.0
1.41529655106 -0.00308389207229 0.0
1.00626686882 -0.0885842710831 0.0
0.0 0.0 0.0
0.0 0.0 0.0
0.0 0.0 0.0
0.0 0.0 0.0
0.0 0.0 0.0
0.0 0.0 0.0
0.0 0.0 0.0
0.0 0.0 0.0
0.0 0.0 0.0
0.0 0.0 0.0
0.0 0.0 0.0
0.0 0.0 0.0
0.0 0.0 0.0
0.0 0.0 0.0
0.0 0.0 0.0
0.0 0.0 0.0
0.0 0.0 0.0
0.0 0.0 0.0
0.0 0.0 0.0
0.0 0.0 0.0
0.0 0.0 0.0
0.0 0.0 0.0
0.0 0.0 0.0
0.0 0.0 0.0
0.0 0.0 0.0
0.0 0.0 0.0
0.0 0.0 0.0
0.0 0.0 0.0
0.0 0.0 0.0
0.0 0.0 0.0
0.0 0.0 0.0
0.0 0.0 0.0
0.0 0.0 0.0
0.0 0.0 0.0
0.0 0.0 0.0
0.0 0.0 0.0
0.0 0.0 0.0
0.0 0.0 0.0
0.0 0.0 0.0
0.0 0.0 0.0
0.0 0.0 0.0
0.0 0.0 0.0
0.0 0.0 0.0
0.0 0.0 0.0
0.0 0.0 0.0
0.0 0.0 0.0
0.0 0.0 0.0
0.0 0.0 0.0
0.0 0.0 0.0
1.0 0.0 0.0
1.0 0.0 0.0
1.0 0.0 0.0
1.0 0.0 0.0
1.23634852155 -0.0233805097712 0.0
1.44608173462 0.00492509674034 0.0
1.43731575126 -0.00867669993269 0.0
1.35319271757 0.00216275255383 0.0
1.43429979265 -0.0265956838994 0.0
1.41042956201 -0.00968483141476 0.0
1.40120808557 -0.0266748377829 0.0
1.40973794736 -0.0329956178599 0.0
1.39983468476 -0.0296744162754 0.0
1.41467249146 -0.0261100400816 0.0
1.40162293578 -0.0114776221608 0.0
1.41744429484 -0.0061355432978 0.0
1.41008715651 0.0132152053003 0.0
1.42869437744 0.0262505121057 0.0
1.44790262621 0.0367636244515 0.0
1.47556643385 0.0392674961213 0.0
1.24622469043 0.0153950823419 0.0
1.13497165766 -0.114138784833 0.0
1.30469985864 0.029827376357 0.0
1.36779714528 0.00342908478406 0.0
1.25188433856 0.00531847966334 0.0
1.36798152402 -0.0168220318045 0.0
1.31746764916 -0.0129646896613 0.0
1.33943725456 -0.0296639209522 0.0
1.3454167206 -0.0127765971547 0.0
1.35690827323 -0.0266826981251 0.0
1.33388949644 -0.0289408812375 0.0
1.30838628376 -0.000565049277469 0.0
1.26805803331 -0.00795858724523 0.0
1.33411680764 0.0228521863305 0.0
1.34651765314 -0.0194590285763 0.0
1.30545735105 -0.019551143402 0.0
1.29353146709 -0.00174063202185 0.0
1.31109326705 0.0417178317483 0.0
1.37298163814 -0.00545713577016 0.0
1.26848827386 0.017864466207 0.0
1.2362413983 0.00248311156689 0.0
1.30648082361 0.0143153013682 0.0
1.27620566783 -0.00887111572433 0.0
1.28320288358 -0.0352120033073 0.0
1.23263205834 -0.0175028040819 0.0
1.28450107625 -0.015470303085 0.0
1.24095578795 -0.0252255730565 0.0
1.2658859211 -0.0272374494275 0.0
1.12160321021 0.0947439735804 0.0
1.29780190419 1.75167505013e-05 0.0
1.2323378574 0.0296455170681 0.0
1.25424820085 0.0281999562629 0.0
1.25461781215 0.0600343814152 0.0
1.24928000305 0.0105247400485 0.0
1.18662970146 -0.0518452086171 0.0
1.1723971392 0.00861591993643 0.0
1.16666266624 -0.00755344551075 0.0
1.17081737568 -0.00890139344863 0.0
1.18896208482 -0.000778745722734 0.0
1.19180554188 0.0215077835362 0.0
1.17104317977 0.0502473288991 0.0
1.14031903683 0.00455808833296 0.0
1.17348335756 -0.021804708784 0.0
1.17880771248 -0.0127498885494 0.0
1.17813435394 -0.0114857945872 0.0
1.1780431114 -0.0138246070955 0.0
1.17296391792 -0.0185652597187 0.0
1.18986896847 -0.0313882796463 0.0
1.15589938906 -0.0122866704533 0.0
1.20674468916 -0.0292044549538 0.0
1.11643570569 0.00686596180482 0.0
1.2150883414 -0.0124556081059 0.0
0.966042418016 -0.022956436372 0.0
0.984351063342 -0.021787545012 0.0
0.962087619786 -0.0200853885467 0.0
0.975740733598 -0.0192214456126 0.0
0.955389447755 -0.00634264764885 0.0
0.99212194648 -0.00725935462081 0.0
0.958939896196 0.00988292852363 0.0
0.877826120153 0.0147961943487 0.0
0.839128737044 0.0196416657191 0.0
0.93405669793 0.0222397096088 0.0
1.18597196585 0.00960649133142 0.0
0.99435641988 -0.00238087430152 0.0
0.971911598625 0.0325867339579 0.0
1.14114271721 0.0396596070523 0.0
0.996405196545 -0.00972930790342 0.0
1.45878953957 -0.0014883220569 0.0
0.859329041914 0.0105175490225 0.0
1.09318009051 0.0751190232059 0.0
1.46633175491 0.00980883410754 0.0
1.12427048843 -0.0160700541835 0.0
0.814917514236 0.0064334199934 0.0
1.03498487432 -0.0654178866894 0.0
0.780527397806 -0.0482880992118 0.0
1.16608702376 -0.166729315905 0.0
0.915334165098 -0.0284462803275 0.0
0.935696441613 -0.00809182621069 0.0
0.923234427569 -0.0125987080228 0.0
1.05035621165 0.0396009224862 0.0
0.922188855591 -0.0273670540161 0.0
0.935032411051 -0.0100131810247 0.0
0.909922015124 -0.0126131882045 0.0
0.93724249735 0.00112757093929 0.0
0.962446873119 0.0132817349641 0.0
0.904539238678 -0.0226326245755 0.0
0.928861761038 0.0164655773626 0.0
0.889486629555 -0.0168326019879 0.0
0.862798141266 0.00281991336081 0.0
0.884299537465 0.00767155342873 0.0
0.886177370942 -0.0177274606841 0.0
0.921977499535 -0.00674344860986 0.0
0.877149694594 -0.00598727264292 0.0
0.894392756667 -0.00475136122023 0.0
0.862451076065 -0.0191214829589 0.0
1.43291575601 0.0187749431378 0.0
1.44780873901 0.0533902787004 0.0
0.868172007088 -0.0270771097328 0.0
0.845286257639 -0.00740215947228 0.0
1.46885088721 -0.032204016829 0.0
1.46104506451 -0.0230129603135 0.0
0.847558573194 -0.0225328505489 0.0
0.854913252086 -0.0167416692262 0.0
0.83912150888 -0.0143255222901 0.0
0.85971770646 -0.0117667897531 0.0
0.832997923329 0.00192601167416 0.0
0.882768180226 0.0141681355085 0.0
0.838839806877 0.0118371641445 0.0
1.46562295442 -0.0256315521357 0.0
1.46272565914 -0.0366282021 0.0
1.46490181801 -0.00673095215784 0.0
1.46580486671 -0.0242676685848 0.0
1.44396023105 0.0142898652172 0.0
1.47056150843 -0.00185998268059 0.0
1.46745396201 0.0303559531358 0.0
1.46504141909 -0.019303672606 0.0
1.41081095954 0.0104541532822 0.0
1.34981103995 0.00987717538732 0.0
1.31193888397 0.00341232559174 0.0
1.4739155652 -0.00298032145665 0.0
1.47014321013 -0.00595227037473 0.0
1.45798277128 0.0228111487647 0.0
1.4409268109 0.00305389776435 0.0
1.47928517209 -0.0246538943335 0.0
1.44825201185 -0.00810552367874 0.0
1.45922474651 -0.036345372811 0.0
1.45116859712 0.00850904147847 0.0
1.43543083453 0.00810403810577 0.0
1.44657177598 -0.0136488824358 0.0
1.44718069063 -0.0297388094114 0.0
1.44390837877 -0.0194026847002 0.0
1.44733269578 -0.0421994954555 0.0
0.833716243889 0.00943180870651 0.0
0.834262679113 0.00310954855945 0.0
0.87442516909 0.00906125991935 0.0
0.867538297579 0.00638473086962 0.0
0.895150763257 -0.036271018549 0.0
0.841111712733 -0.0122780553064 0.0
0.857571747285 -0.013807034854 0.0
0.845939344284 -0.0193326316273 0.0
0.860150947274 -0.018990642443 0.0
0.911136514007 0.0732803076693 0.0
0.908470463676 -0.0321618268729 0.0
1.12733502093 0.163786668384 0.0
0.875478280901 -0.0104572208229 0.0
0.904920121337 0.0138253740893 0.0
1.06516969399 0.0272847618662 0.0
1.30966662541 -0.00489666973023 0.0
1.21799210449 -0.0938294869265 0.0
0.895935421506 0.00818494335752 0.0
0.804995668968 0.00143647955912 0.0
0.808314489083 -0.00609041583128 0.0
0.838964810726 -0.0179613991411 0.0
0.78234467848 0.0263144883463 0.0
0.788676131604 -0.00963546571069 0.0
0.823081153704 -0.00969644880106 0.0
0.83106173747 -0.026571922095 0.0
0.821063938894 -0.00352402969432 0.0
0.831643724004 -0.0203902431457 0.0
1.39146967363 -0.00572168541418 0.0
1.34522823431 0.0323164645003 0.0
0.83043981499 -0.00632706160103 0.0
1.38733457106 -0.0186195617051 0.0
1.38330505752 0.00243009720521 0.0
0.898034996826 0.0178218676207 0.0
0.879238597597 0.161704235004 0.0
1.40200663521 -0.0273665026172 0.0
1.39242668611 -0.0262826772553 0.0
0.877652037283 -0.0048908357547 0.0
0.895293889799 0.022867984019 0.0
1.4086890707 -0.0338439926212 0.0
1.38525145031 -0.0208583664149 0.0
1.36451060837 0.00359306162943 0.0
1.41554466607 -0.0181767673198 0.0
0.846580190417 0.0443979266798 0.0
1.40834789967 0.00286198641566 0.0
1.30661826286 0.0441593608554 0.0
1.33902816511 0.00733758249543 0.0
1.30037794182 -0.00470459838763 0.0
1.26819197286 -0.0124450285956 0.0
1.28172085379 0.0302997390765 0.0
1.26027899967 0.0145952767665 0.0
1.31044740852 0.0189559581021 0.0
1.27941229847 -0.0375124612336 0.0
1.2660257967 -0.0143852526468 0.0
1.31292864385 -0.0118790229513 0.0
1.24881295576 -0.00693553209386 0.0
1.25470567387 -0.0213349628004 0.0
1.29201474515 -0.0283852632302 0.0
1.30011867386 -0.0144586233869 0.0
1.25532473946 -0.00177904353515 0.0
1.27258202433 0.0100219788674 0.0
1.29042819814 -0.0196326887769 0.0
1.30330338882 -0.0215810694089 0.0
1.28425314549 -0.000931691952447 0.0
1.3036307313 -0.0311136647176 0.0
1.24447307538 -0.0364396551798 0.0
1.31045997684 0.0130390661073 0.0
1.24887468276 -0.0126419125426 0.0
1.3208779115 -0.00104399541716 0.0
1.2499255172 -0.0296828034989 0.0
1.2992634766 -0.017862277472 0.0
1.22232424656 0.0593757416317 0.0
1.36501502585 0.0126618751436 0.0
1.26087722005 -0.0307629916524 0.0
1.2794189359 -0.0248956855133 0.0
1.31883730114 0.0229244746233 0.0
1.32724109832 0.0439879233906 0.0
0.894746503809 -0.106540518455 0.0
1.31972273292 0.0113546738362 0.0
1.30453623391 0.05122823235 0.0
1.46851398532 0.0385857937147 0.0
1.46272933387 0.0441802111549 0.0
1.3169163042 0.00526289575276 0.0
1.00509814601 0.0831867215999 0.0
0.733313002505 -0.00260691463055 0.0
1.11873196843 0.14023959377 0.0
1.02893724038 -0.0964424517371 0.0
1.28586722199 0.0014689806115 0.0
1.3631793458 0.00499957606575 0.0
1.2646877301 0.0440172187446 0.0
1.43201273779 -0.0236516221935 0.0
1.38919364573 0.0389440791525 0.0
0.83727037815 0.0688884683101 0.0
0.698860949163 0.0396027928892 0.0
1.12957844257 -0.137694936157 0.0
0.842303077786 -0.0554901035196 0.0
1.4278737953 -0.0399568501155 0.0
1.42792642233 0.0060166963179 0.0
0.639273094224 0.032711733668 0.0
0.663688913645 0.0105708352794 0.0
0.648272332396 -0.0144796763505 0.0
1.44293103358 -0.0146609252424 0.0
1.43620103553 -0.0459575471015 0.0
1.4181735595 0.0214340678793 0.0
1.38036792866 0.0262793493287 0.0
1.44625065405 -0.012991066376 0.0
1.43253055614 -0.0358995111161 0.0
1.45002628107 0.0071501345477 0.0
1.41354127934 0.000737880352917 0.0
0.666457315493 -0.00164561243874 0.0
0.666410794239 -0.0195212026596 0.0
1.44671937114 0.0218062772685 0.0
0.670472710679 -0.00788107375703 0.0
0.658862670998 -0.0228958804536 0.0
0.691422300294 0.00196827760808 0.0
0.640900801614 -0.0196835080812 0.0
0.772538242734 -0.0113450166551 0.0
0.665561200677 -0.00905457481053 0.0
0.701569891059 -0.00160304226888 0.0
0.680846581438 -0.00924033277749 0.0
0.791163345843 0.0372499337596 0.0
0.656537314163 -0.0253318700244 0.0
0.707247674364 -0.00831898542372 0.0
0.667619796896 -0.015497665378 0.0
0.537407510852 0.035307422825 0.0
1.20629129606 -0.0575112501728 0.0
0.853849616408 0.0176793457734 0.0
0.622018765235 0.0339738611742 0.0

SCALARS scalar1 double
LOOKUP_TABLE default
3.57284767847
5.54912132996
6.13763128597
5.51455966195
-6.0383523658
-2.44031616873
10.7607278202
9.38946443672
6.95539055416
6.14240320295
5.67658014427
5.60879844101
5.5949018768
5.37402464354
5.7739693772
5.63815596878
5.74519025008
5.89819778148
6.01630899076
6.02324254096
5.99671374218
6.04908455181
6.00533637082
5.93607368277
5.89556412875
5.8491014652
5.68963426929
5.85182046089
6.01397971302
5.7500054034
7.30909505118
4.34062519074
7.33597921743
5.96924023247
6.18967994092
6.03165179543
5.72874550735
5.79630485243
5.85509248075
5.82741400731
5.88574517903
5.98839853154
5.99414534921
5.94092858597
5.99463587718
6.30433584826
5.84731186636
6.07286475987
5.97625565851
5.63211133294
5.69181695267
5.5157830493
6.05026764161
5.49346827385
3.41771769405
1.22466430412
-0.932033870095
-3.14839334679
-6.19942899612
-6.12314296228
-5.52110190413
-5.14523191189
-5.39808622035
-5.14851227235
-5.59151947986
-5.3739408116
-5.17112716387
-5.4701459393
-5.43024538646
-5.25874687266
-5.62038994916
-5.55545172675
-5.38873212054
-5.76989075061
-5.72690466478
-5.52587344382
-5.92487539894
-7.22642224336
-4.90355824147
-5.89055244094
-5.79616684917
-5.75504115069
-5.84833400679
-4.76025722195
-6.86249240537
-5.54754240985
-5.21363981825
-5.51239836713
-5.48782629306
-5.14938584504
-5.40364115839
-5.49160544953
-5.19985274886
-5.4836144192
-5.6308890223
-5.39778549452
-5.72464002057
-6.00542207056
-5.84178098132
-6.28487216714
-7.07227093054
-6.61391500477
-6.9818542899
-7.32246939071
-8.17827539718
-10.2880017308
-11.1095283347
2.65605387385
-0.0905408657195
-0.0141425249522
-3.22370397944
-0.0076483152714
0.49387348566
0.682610351092
0.487498456374
0.667099405696
0.686574828699
0.942583157858
0.855603379975
1.04857158047
0.762741373232
1.091573509
0.551392054509
0.968320106468
0.0115458988014
0.155542097848
0.00983626326661
2.39945408577
-0.966572378843
-1.69782063658
-1.31880861242
-1.92283378947
-1.31400510639
-1.66956969284
-1.51303865595
-1.54248883586
-1.42463463929
-1.55326330492
2.07013624817
0.961229504453
-1.31916916159
-1.47787524791
2.07116464777
1.52907871769
-0.367998512675
-1.37126326379
2.22293486969
2.41300150909
1.48381753839
1.8558674585
2.0391427695
2.34762360505
1.8016768295
2.13932666744
1.97709666234
0.818302786223
-1.99747780713
-2.02640406975
-1.93336262692
1.68790485831
1.98624437846
1.2487557234
2.82561223322
2.84776289063
2.06483122446
-2.3700551344
-2.1998555717
-1.82738969678
-2.74840788414
2.76778295739
2.39786842343
-2.4348520816
-2.62725592112
-2.48203197616
-2.48488661577
-2.58841521275
-2.30162843327
-2.72710727535
-2.23412933325
3.34536598593
3.38395643103
3.40174495819
3.53117891465
3.46782067946
3.4778251894
3.4966917446
4.0023405725
3.99921233997
-3.29771850162
-2.40745921857
-2.79999030928
-2.76528411115
2.13605197009
-0.0286933188064
0.0780339028531
-3.9138048044
-2.75041677929
0.150995428897
-0.0459919501031
3.73930547465
3.34154445776
3.81168686681
-0.593713442548
-3.46772438968
-3.56119390213
-3.56396988227
-2.98120366606
-3.37973021767
-3.49945281462
-3.38496109029
-3.50515659062
-3.55050496918
-3.60083589577
-3.55118300098
3.63237689763
3.73964638042
3.57218752394
3.53903695323
3.50647473424
3.65498817115
3.58485941944
3.69659086037
-0.173070061725
-0.136104533839
3.70720495449
3.74562982808
0.388149623473
0.487143028515
3.74320265735
3.94882941043
3.73686778461
4.06679365969
3.78588369219
4.03948606617
3.93749190617
0.381611178005
0.553286917125
0.23013042467
0.581492396523
0.0246165147189
0.525386421143
0.236761830133
0.350152746436
0.380489199633
0.215406589707
0.131158803539
0.29819918355
0.218872939232
0.429943099916
0.356896514835
0.29420474813
0.459478484438
0.378905860119
0.639079724451
0.142455369172
0.648274231002
0.358011221433
0.589797221876
0.468426378719
3.81140894222
3.75602893248
3.96305653494
3.79468698872
3.65507635672
3.72004277763
4.06088137
3.75284423185
3.87882422917
-3.36473475358
-3.18556005772
0.117005207176
-3.94824295433
-3.60082908324
-2.85625186867
1.99877479004
-0.42185769687
-3.68922949
-4.047758019
-3.9211043913
-3.82260134964
-3.62109364937
-4.14293848811
-3.76250826745
-3.83616071205
-3.69168328347
-3.92637997537
-1.12853904364
-0.429622814144
-4.00402954651
-1.18213337245
-1.054707839
-3.40336789013
3.99704672874
-1.09090362136
-1.15256767876
4.00212124079
-3.36126197993
-1.00075196409
-1.20515340075
-1.34319762864
-0.946812657211
4.0612275339
-1.03787660374
-1.66581734634
-1.49539387124
1.96188278082
1.43483051202
2.1086231091
2.38598012231
1.48524362802
2.07152481501
1.94062934417
1.85053376246
2.380708265
2.19497176632
2.01726987728
1.97051619517
1.02828590704
2.2739725345
1.72351256754
1.89869566316
1.51374592034
1.92718851295
0.769389580059
1.90204096711
2.39768084632
1.55769335279
2.30944102611
1.842683888
0.347608778589
-1.4594708042
2.12686327487
2.0063688622
-1.41510976062
-1.40207517336
3.77289106
1.51577582881
1.94711484547
0.473310028527
0.42468436587
-1.87524281386
1.18680038983
-4.50661275156
-3.28230940782
-1.50403098849
2.23294244292
-1.32299185069
0.055968157638
-0.795520540804
-0.329601559093
-3.58243848023
4.19045160658
3.87538540187
-4.05124494832
-0.817972739436
-0.703254245993
-4.48488970712
-4.45368765444
-3.85972986654
-0.672442596508
-0.75840361633
-1.11257626256
-1.2990227828
-0.612069068781
-0.829646882816
-0.602364463819
-1.01424693424
-4.34135021312
-3.95172089375
-0.787629451621
-4.19940110473
-4.15383222623
-4.13604918868
-4.43012870445
4.64830329645
4.0682504503
4.04180118046
4.5762184189
-3.9995147833
-4.57466013431
4.15160776479
4.56972553587
4.48369190293
1.11471467522
-4.04246869739
-4.55505640332

SCALARS scalar2 double
LOOKUP_TABLE default
3.57284767847
5.54912132996
6.13763128597
5.51455966195
-6.0383523658
-2.44031616873
10.7607278202
9.38946443672
6.95539055416
6.14240320295
5.67658014427
5.60879844101
5.5949018768
5.37402464354
5.7739693772
5.63815596878
5.74519025008
5.89819778148
6.01630899076
6.02324254096
5.99671374218
6.04908455181
6.00533637082
5.93607368277
5.89556412875
5.8491014652
5.68963426929
5.85182046089
6.01397971302
5.7500054034
7.30909505118
4.34062519074
7.33597921743
5.96924023247
6.18967994092
6.03165179543
5.72874550735
5.79630485243
5.85509248075
5.82741400731
5.88574517903
5.98839853154
5.99414534921
5.94092858597
5.99463587718
6.30433584826
5.84731186636
6.07286475987
5.97625565851
5.63211133294
5.69181695267
5.5157830493
6.05026764161
5.49346827385
3.41771769405
1.22466430412
-0.932033870095
-3.14839334679
-6.19942899612
-6.12314296228
-5.52110190413
-5.14523191189
-5.39808622035
-5.14851227235
-5.59151947986
-5.3739408116
-5.17112716387
-5.4701459393
-5.43024538646
-5.25874687266
-5.62038994916
-5.55545172675
-5.38873212054
-5.76989075061
-5.72690466478
-5.52587344382
-5.92487539894
-7.22642224336
-4.90355824147
-5.89055244094
-5.79616684917
-5.75504115069
-5.84833400679
-4.76025722195
-6.86249240537
-5.54754240985
-5.21363981825
-5.51239836713
-5.48782629306
-5.14938584504
-5.40364115839
-5.49160544953
-5.19985274886
-5.4836144192
-5.6308890223
-5.39778549452
-5.72464002057
-6.00542207056
-5.84178098132
-6.28487216714
-7.07227093054
-6.61391500477
-6.9818542899
-7.32246939071
-8.17827539718
-10.2880017308
-11.1095283347
2.65605387385
-0.0905408657195
-0.0141425249522
-3.22370397944
-0.0076483152714
0.49387348566
0.682610351092
0.487498456374
0.667099405696
0.686574828699
0.942583157858
0.855603379975
1.04857158047
0.762741373232
1.091573509
0.551392054509
0.968320106468
0.0115458988014
0.155542097848
0.00983626326661
2.39945408577
-0.966572378843
-1.69782063658
-1.31880861242
-1.92283378947
-1.31400510639
-1.66956969284
-1.51303865595
-1.54248883586
-1.42463463929
-1.55326330492
2.07013624817
0.961229504453
-1.31916916159
-1.47787524791
2.07116464777
1.52907871769
-0.367998512675
-1.37126326379
2.22293486969
2.41300150909
1.48381753839
1.8558674585
2.0391427695
2.34762360505
1.8016768295
2.13932666744
1.97709666234
0.818302786223
-1.99747780713
-2.02640406975
-1.93336262692
1.68790485831
1.98624437846
1.2487557234
2.82561223322
2.84776289063
2.06483122446
-2.3700551344
-2.1998555717
-1.82738969678
-2.74840788414
2.76778295739
2.39786842343
-2.4348520816
-2.62725592112
-2.48203197616
-2.48488661577
-2.58841521275
-2.30162843327
-2.72710727535
-2.23412933325
3.34536598593
3.38395643103
3.40174495819
3.53117891465
3.46782067946
3.4778251894
3.4966917446
4.0023405725
3.99921233997
-3.29771850162
-2.40745921857
-2.79999030928
-2.76528411115
2.13605197009
-0.0286933188064
0.0780339028531
-3.9138048044
-2.75041677929
0.150995428897
-0.0459919501031
3.73930547465
3.34154445776
3.81168686681
-0.593713442548
-3.46772438968
-3.56119390213
-3.56396988227
-2.98120366606
-3.37973021767
-3.49945281462
-3.38496109029
-3.50515659062
-3.55050496918
-3.60083589577
-3.55118300098
3.63237689763
3.73964638042
3.57218752394
3.53903695323
3.50647473424
3.65498817115
3.58485941944