# vtk DataFile Version 2.0
2D Simulation Python
ASCII
DATASET UNSTRUCTURED_GRID
FIELD FieldData 1
NODES 1 2 int
386 659

POINTS 386 double
0.0 1.0 0.0
1.725 1.002389327242872 0.0
8.275 0.9976106727571281 0.0
10.0 1.0 0.0
10.0 -1.4151375578686064e-18 0.0
0.0 0.0 0.0
0.1916666666663293 1.0006890918566524 0.0
0.3833333333324708 1.001338401448003 0.0
0.574999999998553 1.0019104431962205 0.0
0.7666666666645966 1.0023721923073374 0.0
0.9583333333312576 1.0026969913401678 0.0
1.149999999998384 1.0028660891787755 0.0
1.341666666665662 1.0028697235614055 0.0
1.533333333332819 1.0027076846699134 0.0
1.92348484848444 1.0019145656367514 0.0
2.121969696968978 1.001321311217325 0.0
2.320454545453434 1.0006462806078384 0.0
2.518939393937826 0.9999312515747215 0.0
2.717424242422235 0.9992204773940707 0.0
2.915909090906411 0.9985579480083963 0.0
3.1143939393908 0.9979846674811244 0.0
3.312878787875129 0.997536116247706 0.0
3.511363636359531 0.9972400552250504 0.0
3.709848484843827 0.9971148076833616 0.0
3.90833333332816 0.9971681252156319 0.0
4.106818181812215 0.9973967079901521 0.0
4.305303030296804 0.9977864089776936 0.0
4.503787878781365 0.9983131095136997 0.0
4.702272727265711 0.9989442120067988 0.0
4.900757575750005 0.999640657409625 0.0
5.099242424235156 1.0003593425903214 0.0
5.297727272720327 1.001055787993154 0.0
5.496212121205663 1.001686890486262 0.0
5.694696969690998 1.0022135910222782 0.0
5.89318181817668 1.0026032920098304 0.0
6.09166666666213 1.0028318747843612 0.0
6.290151515147423 1.0028851923166402 0.0
6.488636363633031 1.0027599447749576 0.0
6.687121212118713 1.0024638837523052 0.0
6.885606060604342 1.0020153325188883 0.0
7.084090909089381 1.0014420519916172 0.0
7.282575757574369 1.000779522605941 0.0
7.481060606059355 1.0000687484252886 0.0
7.679545454544343 0.9993537193921697 0.0
7.878030303029329 0.9986786887826805 0.0
8.076515151514705 0.9980854343632508 0.0
8.46666666666447 0.9972923153300894 0.0
8.658333333329285 0.9971302764385968 0.0
8.84999999999549 0.9971339108212217 0.0
9.041666666661694 0.9973030086598229 0.0
9.233333333327899 0.997627807692647 0.0
9.42499999999549 0.9980895568037635 0.0
9.616666666663775 0.998661598551985 0.0
9.808333333331985 0.9993109081433417 0.0
10.0 0.7999999999999998 0.0
10.0 0.6000000000013869 0.0
10.0 0.4000000000016644 0.0
10.0 0.2000000000008322 0.0
9.799999999999999 -0.0007184324489193997 0.0
9.6 -0.0013917231448634661 0.0
9.399999999999999 -0.001977566757216057 0.0
9.2 -0.002439152577231001 0.0
8.999999999999998 -0.0027474774702428563 0.0
8.799999999999997 -0.0028831682492839947 0.0
8.599999999999998 -0.002837698963671546 0.0
8.399999999999997 -0.0026139266158449054 0.0
8.199999999999998 -0.002225911645395052 0.0
7.999999999999997 -0.001698034459934647 0.0
7.799999999999997 -0.00106346352442265 0.0
7.599999999999998 -0.0003620712645259229 0.0
7.399999999999997 0.0003620712645259419 0.0
7.199999999999998 0.0010634635244226678 0.0
6.999999999999997 0.001698034459934679 0.0
6.799999999999997 0.002225911645395075 0.0
6.599999999999998 0.002613926615844887 0.0
6.399999999999997 0.0028376989636716013 0.0
6.199999999999998 0.00288316824928399 0.0
5.999999999999997 0.002747477470242851 0.0
5.799999999999998 0.0024391525772310117 0.0
5.599999999999998 0.001977566757216065 0.0
5.399999999999999 0.0013917231448634527 0.0
5.199999999999998 0.0007184324489193916 0.0
4.999999999999999 -5.839230580039493e-18 0.0
4.799999999999999 -0.0007184324489193945 0.0
4.599999999999999 -0.0013917231448634538 0.0
4.399999999999999 -0.0019775667572160733 0.0
4.199999999999999 -0.002439152577231032 0.0
3.999999999999999 -0.002747477470242858 0.0
3.799999999999999 -0.00288316824928399 0.0
3.599999999999999 -0.0028376989636715814 0.0
3.399999999999998 -0.002613926615844915 0.0
3.199999999999998 -0.0022259116453950513 0.0
2.999999999999999 -0.00169803445993465 0.0
2.799999999999998 -0.001063463524422656 0.0
2.599999999999998 -0.00036207126452591674 0.0
2.399999999999999 0.0003620712645259306 0.0
2.199999999999999 0.0010634635244226697 0.0
1.999999999999998 0.0016980344599346639 0.0
1.799999999999999 0.002225911645395091 0.0
1.6 0.0026139266158449015 0.0
1.4 0.002837698963671583 0.0
1.199999999999999 0.00288316824928399 0.0
0.9999999999999982 0.0027474774702428368 0.0
0.7999999999999989 0.0024391525772310104 0.0
0.6000000000000014 0.0019775667572160573 0.0
0.3999999999999986 0.0013917231448634451 0.0
0.1999999999999993 0.0007184324489193944 0.0
0.0 0.1999999999995579 0.0
0.0 0.3999999999989749 0.0
0.0 0.5999999999989468 0.0
0.0 0.7999999999994734 0.0
0.6588421697801492 0.5584012742063736 0.0
9.341157241060813 0.5335111553045595 0.0
8.741442063535494 0.5497170972262831 0.0
1.2585547353106854 0.585155399272731 0.0
8.162853300794405 0.5597522938815412 0.0
1.837130836108849 0.5857945527870768 0.0
2.430428774075935 0.5992847400838781 0.0
7.569488619526076 0.5962868907782028 0.0
3.0304796413653152 0.5920629321835184 0.0
6.969036062808795 0.6104485449650834 0.0
3.6286522985103025 0.5849129935508862 0.0
6.367989886418659 0.607150254715881 0.0
4.229391846701912 0.5777892845713463 0.0
5.795137911982665 0.5428829182148124 0.0
4.802473156939348 0.5238576832039868 0.0
5.298819496401534 0.5263584713686977 0.0
9.677456201506578 0.6950062332447846 0.0
0.32254363945904907 0.7059976004912479 0.0
4.530519052484413 0.33003497183724156 0.0
3.9188131057703 0.3577443799484297 0.0
6.06796961231943 0.3525667412613657 0.0
3.319400328626057 0.3639576954831923 0.0
6.6796634207687315 0.38469592358100774 0.0
7.8789964430217765 0.3603344752207027 0.0
2.1209711388746566 0.37448129562791516 0.0
2.7200987249009487 0.3716419142455928 0.0
7.279724033238782 0.37879941346006757 0.0
9.037276408384118 0.65791330743282 0.0
0.9627223693603061 0.6871318655140215 0.0
1.5320742735170427 0.3746191812049589 0.0
8.467919441691558 0.3460224579110094 0.0
8.45830372920131 0.6653022087318372 0.0
1.5416902209291048 0.694649701392807 0.0
0.9793935679630013 0.3797746929348059 0.0
9.020605071198704 0.35083769196896264 0.0
4.527193496409525 0.6824497797563047 0.0
3.9213932201816775 0.6873736525428822 0.0
6.069690461797395 0.7049415901629628 0.0
2.118365695666452 0.699031971150167 0.0
7.881604958881558 0.6847442164413525 0.0
3.323350196126966 0.6923554720242584 0.0
6.6755644420671105 0.7141482492978553 0.0
2.725359893006773 0.6998994492002717 0.0
7.274472263568502 0.7076139489354307 0.0
0.3328378244150922 0.309222039075603 0.0
9.667162002318086 0.29803277557323155 0.0
5.5813257474910305 0.3312818105716512 0.0
5.017217730499947 0.3217785024989073 0.0
5.509458709413023 0.7027514783445029 0.0
5.087389843842066 0.6956197475950081 0.0
0.6618969788946523 0.7455037982679675 0.0
9.338102578894256 0.7255832848846746 0.0
8.747631417069515 0.7261075893350354 0.0
1.2523662298253235 0.7539488783520245 0.0
8.670395076053698 0.2629527924318736 0.0
1.3296018177242064 0.2892102404042006 0.0
0.6803983725313861 0.246096360295029 0.0
9.319601190473055 0.22773456775943615 0.0
8.169917151927024 0.7345506484521509 0.0
1.8300713883606545 0.755182359403435 0.0
8.082250390529397 0.2693571976918369 0.0
1.9177338001727136 0.2868757204284657 0.0
7.4851892614484585 0.28561613781388384 0.0
2.5147256705996273 0.28550130397317325 0.0
6.88516852952889 0.29480398911344047 0.0
3.114394989966862 0.2789723039852018 0.0
6.284940514918106 0.28385881289045406 0.0
3.7137801149421312 0.2733346947437131 0.0
2.422441815006091 0.8131064210238312 0.0
7.577510627488093 0.8109926170939846 0.0
3.021597626173624 0.8084213468559823 0.0
6.978112034512173 0.8203693116141743 0.0
3.6184527530141777 0.8039049486587885 0.0
6.379479271348352 0.8202396207257111 0.0
4.216879577828157 0.801232671553075 0.0
5.793600132525129 0.8510807844697825 0.0
4.802572447171672 0.8409516855598163 0.0
5.2995789223072185 0.18923695393279216 0.0
4.313872371456325 0.2612920203967271 0.0
4.743200922146248 0.2339575062702206 0.0
5.855727865299347 0.24884882427712612 0.0
5.298371481015616 0.7219718781119566 0.0
0.19483606237270806 0.5060493275046062 0.0
9.805163828911606 0.4982107264579718 0.0
9.486964918445754 0.1567013474721893 0.0
0.5130348888711216 0.16797359536108508 0.0
9.568928308526987 0.5036194418049467 0.0
0.4310713955981461 0.5207838015236079 0.0
9.509140319415796 0.830714630293896 0.0
0.4908595024149689 0.8419787421924102 0.0
9.823685345497493 0.8254687971549348 0.0
0.17631460202762148 0.8300066099694868 0.0
7.690681788670398 0.1902842373613588 0.0
2.309284141759608 0.1951216772202075 0.0
8.87666804175902 0.18186318642681523 0.0
1.1233306648735888 0.20173570013330122 0.0
7.090886068616149 0.1995166845048556 0.0
2.908936090590213 0.19089102160527363 0.0
6.491080593222157 0.19903267179452513 0.0
3.5085257664431797 0.18615638271678508 0.0
1.7133152812658954 0.19633092291372156 0.0
8.286678286348772 0.1799147160020786 0.0
4.108117444276512 0.18109657881482713 0.0
8.57756561171242 0.8184049945065841 0.0
1.4224317075638726 0.8387342411322656 0.0
8.923337254634689 0.816140387523871 0.0
1.0766617019611675 0.8364352790916675 0.0
0.8418648305141219 0.8338428612594583 0.0
9.158134636426377 0.815957842941482 0.0
8.345856483397188 0.8206658003097347 0.0
1.6541384090161435 0.8387346248397488 0.0
5.592450978066736 0.5160586132109305 0.0
5.005261673565332 0.5045786550678111 0.0
7.789411220867323 0.8358011903128281 0.0
2.210566143876632 0.842963177305079 0.0
7.776876914588578 0.5460161915336584 0.0
2.223075715491988 0.5578943774328633 0.0
2.815269918807596 0.8410107733480491 0.0
7.184596106066681 0.8480144591934672 0.0
3.4120488269772586 0.8362321027588232 0.0
6.587039209674885 0.8512514040553657 0.0
4.009197028568908 0.8335731279196457 0.0
5.984834725605759 0.8522841145319481 0.0
4.611341439543605 0.8391151845708661 0.0
7.175176977926692 0.5662512139822207 0.0
2.8245539232518957 0.5539616758023536 0.0
6.5752126289938975 0.5702821349510108 0.0
3.423076366771204 0.5455687833220972 0.0
5.978035962854762 0.5479096952508224 0.0
4.022397597908996 0.539235254606911 0.0
4.619568773540308 0.5237418065785581 0.0
[...]
POINT_DATA 386
VECTORS vector double
1.0 0.0 0.0
0.0 0.0 0.0
0.0 0.0 0.0
0.0 0.0 0.0
0.0 0.0 0.0
1.0 0.0 0.0
0.0 0.0 0.0
0.0 0.0 0.0
0.0 0.0 0.0
0.0 0.0 0.0
0.0 0.0 0.0
0.0 0.0 0.0
0.0 0.0 0.0
0.0 0.0 0.0
0.0 0.0 0.0
0.0 0.0 0.0
0.0 0.0 0.0
0.0 0.0 0.0
0.0 0.0 0.0
0.0 0.0 0.0
0.0 0.0 0.0
0.0 0.0 0.0
0.0 0.0 0.0
0.0 0.0 0.0
0.0 0.0 0.0
0.0 0.0 0.0
0.0 0.0 0.0
0.0 0.0 0.0
0.0 0.0 0.0
0.0 0.0 0.0
0.0 0.0 0.0
0.0 0.0 0.0
0.0 0.0 0.0
0.0 0.0 0.0
0.0 0.0 0.0
0.0 0.0 0.0
0.0 0.0 0.0
0.0 0.0 0.0
0.0 0.0 0.0
0.0 0.0 0.0
0.0 0.0 0.0
0.0 0.0 0.0
0.0 0.0 0.0
0.0 0.0 0.0
0.0 0.0 0.0
0.0 0.0 0.0
0.0 0.0 0.0
0.0 0.0 0.0
0.0 0.0 0.0
0.0 0.0 0.0
0.0 0.0 0.0
0.0 0.0 0.0
0.0 0.0 0.0
0.0 0.0 0.0
0.907996768017 0.0940251579045 0.0
1.38914451979 0.00604112324634 0.0
1.42047454992 -0.00287191772224 0.0
1.00118123881 -0.0889848662145 0.0
0.0 0.0 0.0
0.0 0.0 0.0
0.0 0.0 0.0
0.0 0.0 0.0
0.0 0.0 0.0
0.0 0.0 0.0
0.0 0.0 0.0
0.0 0.0 0.0
0.0 0.0 0.0
0.0 0.0 0.0
0.0 0.0 0.0
0.0 0.0 0.0
0.0 0.0 0.0
0.0 0.0 0.0
0.0 0.0 0.0
0.0 0.0 0.0
0.0 0.0 0.0
0.0 0.0 0.0
0.0 0.0 0.0
0.0 0.0 0.0
0.0 0.0 0.0
0.0 0.0 0.0
0.0 0.0 0.0
0.0 0.0 0.0
0.0 0.0 0.0
0.0 0.0 0.0
0.0 0.0 0.0
0.0 0.0 0.0
0.0 0.0 0.0
0.0 0.0 0.0
0.0 0.0 0.0
0.0 0.0 0.0
0.0 0.0 0.0
0.0 0.0 0.0
0.0 0.0 0.0
0.0 0.0 0.0
0.0 0.0 0.0
0.0 0.0 0.0
0.0 0.0 0.0
0.0 0.0 0.0
0.0 0.0 0.0
0.0 0.0 0.0
0.0 0.0 0.0
0.0 0.0 0.0
0.0 0.0 0.0
0.0 0.0 0.0
0.0 0.0 0.0
0.0 0.0 0.0
0.0 0.0 0.0
1.0 0.0 0.0
1.0 0.0 0.0
1.0 0.0 0.0
1.0 0.0 0.0
1.23594713389 -0.0142396927051 0.0
1.45433549913 0.00763022562817 0.0
1.4428679514 -0.00628804115117 0.0
1.35437280897 -0.00246699389149 0.0
1.4389832307 -0.0256965396606 0.0
1.40993133497 -0.0132093449515 0.0
1.39741400542 -0.0306220040811 0.0
1.41047650422 -0.0330577566242 0.0
1.40069137919 -0.0299751351747 0.0
1.41302042601 -0.0227275284122 0.0
1.40739705813 -0.0106766327163 0.0
1.41971940709 -1.72651129532e-05 0.0
1.41703674037 0.0138154258123 0.0
1.4427462608 0.0238138220028 0.0
1.45538651048 0.0330885283191 0.0
1.4857376158 0.0371534794539 0.0
1.25088052667 0.0171449576143 0.0
1.12809286953 -0.105136385504 0.0
1.311064487 0.0294972373374 0.0
1.36693418897 0.00426208559517 0.0
1.27826786002 0.0064804170378 0.0
1.36923629904 -0.0161483921484 0.0
1.34706427069 -0.013031576168 0.0
1.35163638971 -0.0303748089264 0.0
1.35831883841 -0.01642100951 0.0
1.36420142207 -0.0283201394071 0.0
1.35475310734 -0.0301037694785 0.0
1.32137490719 0.00227053975709 0.0
1.2563024287 -0.009905806225 0.0
1.35090725508 0.0214812479376 0.0
1.34951788299 -0.0175685470613 0.0
1.31334277925 -0.0172445268061 0.0
1.27683953146 -0.00393676532642 0.0
1.32547521845 0.0421768097007 0.0
1.36649859505 -0.00132455038024 0.0
1.26684649767 0.0177752886899 0.0
1.23602075603 0.00399627604371 0.0
1.2852849902 0.0127642260885 0.0
1.26224771533 -0.012396204875 0.0
1.27801666479 -0.0355234796993 0.0
1.22802317586 -0.0171035951131 0.0
1.2662702168 -0.0141724464666 0.0
1.23092060375 -0.0277909643225 0.0
1.25162939166 -0.0282547940484 0.0
1.12886494942 0.104898241558 0.0
1.29582835271 0.000623943326365 0.0
1.25626014388 0.0298785191556 0.0
1.269037943 0.0256148715899 0.0
1.2445880075 0.0596452558574 0.0
1.24188787076 0.00634043333487 0.0
1.18078883614 -0.0434399165695 0.0
1.17642356952 0.0107126376475 0.0
1.16667176607 -0.00597465345602 0.0
1.16333930713 -0.0105097509246 0.0
1.18992912013 -0.00112922906605 0.0
1.20071394022 0.0197134971884 0.0
1.17570330482 0.0563067939996 0.0
1.13536857814 0.00555391564161 0.0
1.16569638954 -0.0217950336024 0.0
1.1669003043 -0.0141719241264 0.0
1.18529051503 -0.0130429753264 0.0
1.19374784474 -0.0191459055613 0.0
1.18647947398 -0.0195550768321 0.0
1.20403619651 -0.0344930629503 0.0
1.17667252036 -0.010687074848 0.0
1.21500081069 -0.0282603404282 0.0
1.14238981236 0.00992531904529 0.0
1.21681788681 -0.0103408249304 0.0
0.960029437232 -0.0211126875708 0.0
0.955632887346 -0.0175682487878 0.0
0.906044657572 -0.0171905309524 0.0
0.992413499042 -0.0146948024218 0.0
0.876718856274 -0.00591679361853 0.0
1.02611776821 -0.00300503946007 0.0
0.891610350869 0.00753028064038 0.0
0.904058771137 0.012295782879 0.0
0.803381469284 0.014442343807 0.0
0.922964295805 0.0184227849491 0.0
1.18651455213 0.0115543767911 0.0
1.01081744569 -0.00038302183141 0.0
0.95248802885 0.032813405982 0.0
1.13701043802 0.0352084560929 0.0
0.999030234902 -0.00649209504479 0.0
1.46648720569 0.000350440303484 0.0
0.893014144138 0.00677422860577 0.0
1.05663052369 0.0759675904854 0.0
1.47523442069 0.0116219052514 0.0
1.12591924013 -0.00777220477763 0.0
0.771371604161 0.00394752336668 0.0
1.06806452648 -0.0615969374461 0.0
0.764421095122 -0.0467355838094 0.0
1.16247232397 -0.168214753821 0.0
0.938318656619 -0.0262296374845 0.0
0.929730726983 -0.0068611826831 0.0
0.986437915515 -0.0101628288005 0.0
0.985076116645 0.038442681259 0.0
0.905475412347 -0.025151708958 0.0
0.972528073164 -0.00766361686925 0.0
0.869348993484 -0.0143064062382 0.0
0.998998141011 0.00257199230622 0.0
0.914914345283 0.0138845957853 0.0
0.961107040448 -0.0204770062131 0.0
0.985743738882 0.0157791044371 0.0
0.808816429034 -0.0142271567026 0.0
0.925904954288 0.00313562273652 0.0
0.808531795717 0.00765561097723 0.0
0.953693228046 -0.0201505008531 0.0
0.985072364661 -0.00792588532817 0.0
0.81109674248 -0.00676182389802 0.0
0.81653730014 -0.00139741664423 0.0
0.91733546807 -0.0178543930353 0.0
1.44790728466 0.0170675391817 0.0
1.45817954164 0.0493472424278 0.0
0.820458452348 -0.0232574287887 0.0
0.861187091508 -0.00704877193975 0.0
1.47573720605 -0.0318587068109 0.0
1.46268584162 -0.02771877689 0.0
0.800794956487 -0.0206856569601 0.0
0.862874931096 -0.012372303756 0.0
0.75476879013 -0.0143215414448 0.0
0.901192732525 -0.00634421840923 0.0
0.748869130917 -0.000449480290888 0.0
0.914687182851 0.00983921285758 0.0
0.789773691273 0.00713097854674 0.0
1.4733725129 -0.0255057671223 0.0
1.4648423987 -0.0392842266004 0.0
1.47730765028 -0.00457609366474 0.0
1.47038588895 -0.0248690318247 0.0
1.46250428035 0.0140192920916 0.0
1.47695384683 -0.00188003976689 0.0
1.47509091866 0.0292849518599 0.0
1.47228067093 -0.0159610920055 0.0
1.41308071601 0.00830665183196 0.0
1.34976910373 0.00550570244969 0.0
1.31066383873 0.00650782837258 0.0
1.48361234439 0.000413848124438 0.0
1.47986470907 -0.00141176689362 0.0
1.46369509264 0.0237092060067 0.0
1.44326571151 -0.00110650678864 0.0
1.48759160654 -0.0224945569739 0.0
1.4490201942 -0.0109887794325 0.0
1.46642107446 -0.0366153375763 0.0
1.45666287222 0.0109258256516 0.0
1.45685308736 0.00987517576835 0.0
1.45049724655 -0.0120272595389 0.0
1.45700953119 -0.0290146015543 0.0
1.44569030642 -0.0218617723434 0.0
1.45321012151 -0.0443519525729 0.0
0.767234425456 0.00749871665855 0.0
0.744534994255 0.00450067914072 0.0
0.912552134364 0.00658380124167 0.0
0.89934401381 0.00812136149838 0.0
0.834508477383 -0.0327434364073 0.0
0.766580982517 -0.00891097728154 0.0
0.889762855221 -0.0103307920162 0.0
0.82124880052 -0.0168281141317 0.0
0.846791536778 -0.0160761935719 0.0
0.927407772304 0.0665434823276 0.0
0.866376643695 -0.0418749033478 0.0
1.13438029493 0.153426621384 0.0
0.882349615991 -0.0151910617446 0.0
0.961873303896 0.0139679712025 0.0
1.00089142975 0.0253011490974 0.0
1.31452887981 -0.00251200234287 0.0
1.21339411289 -0.0799176211903 0.0
0.826084082045 0.0119183075574 0.0
0.876962958699 0.00171045750158 0.0
0.848959664443 -0.00513826014276 0.0
0.809357322551 -0.016425649853 0.0
0.727337232989 0.0352963420092 0.0
0.834373858703 -0.0119887977172 0.0
0.814693889378 -0.00742933481617 0.0
0.855867093545 -0.0247126017342 0.0
0.775189315687 -0.0025152494908 0.0
0.896354092679 -0.0191626588778 0.0
1.39583763144 -0.00174117864616 0.0
1.3518423016 0.0301458065246 0.0
0.903291346418 -0.00732350297031 0.0
1.39617475169 -0.0176453467224 0.0
1.39650154044 -0.00125555659813 0.0
0.898258083046 0.0125630081869 0.0
0.867790056709 0.144859427836 0.0
1.41278411095 -0.0315885820295 0.0
1.40714223024 -0.0279133338108 0.0
0.892939934729 -0.00299747828711 0.0
0.868431196225 0.0193107461628 0.0
1.41799292996 -0.0347595352111 0.0
1.40504196997 -0.0219268258777 0.0
1.3934812829 0.00274210783451 0.0
1.42178135406 -0.0174907967594 0.0
0.823248645201 0.035996072159 0.0
1.41332634298 0.00378531353162 0.0
1.33699375454 0.0487967288759 0.0
1.35129537963 0.00618597154804 0.0
1.3002551174 -0.0027281012327 0.0
1.26352578924 -0.0160026456415 0.0
1.27813764973 0.0287585612999 0.0
1.26594324166 0.0151363408713 0.0
1.28951830356 0.0165027737836 0.0
1.26842184038 -0.0385684277053 0.0
1.2544052194 -0.0171444563703 0.0
1.28822153336 -0.0103805479904 0.0
1.25316599055 -0.00706385887855 0.0
1.2505160884 -0.0222621719883 0.0
1.27109143244 -0.0289987064765 0.0
1.30199449702 -0.0104309876913 0.0
1.25330888573 -0.00447335785037 0.0
1.27850051854 0.0105422988905 0.0
1.28140339024 -0.023656097881 0.0
1.29689626803 -0.0221669343952 0.0
1.27683486981 -0.00304654523748 0.0
1.30014048749 -0.0289537377169 0.0
1.2416387335 -0.032543469948 0.0
1.31557520285 0.0157831564155 0.0
1.25491409185 -0.0118122103915 0.0
1.29433039582 0.00507770979455 0.0
1.24690934901 -0.0301697297756 0.0
1.27663949358 -0.0133764816131 0.0
1.22599192237 0.0703809609913 0.0
1.36970388401 0.0143767380489 0.0
1.24799767871 -0.0346743229692 0.0
1.26719535947 -0.0238960926337 0.0
1.34270440221 0.0224065316418 0.0
1.34652025852 0.0425754260476 0.0
0.896938929512 -0.106276086699 0.0
1.30275232778 0.0093279958491 0.0
1.29853323005 0.0474204017968 0.0
1.47385828049 0.0351119483061 0.0
1.46917454288 0.0401024725761 0.0
1.31948774108 0.0068161009463 0.0
1.01048561924 0.0855010887797 0.0
0.761131934677 -0.00450685604375 0.0
1.09594787396 0.1399788415 0.0
1.02161538115 -0.0967956856025 0.0
1.28715476816 0.00394970593307 0.0
1.36855641302 0.00797213252289 0.0
1.26704400448 0.0488115018116 0.0
1.44339966158 -0.0201348832458 0.0
1.39033092207 0.0378479478067 0.0
0.782871187008 0.0760641510465 0.0
0.662741099997 0.0371698812935 0.0
1.14752935029 -0.140591390412 0.0
0.874924344766 -0.0579919684791 0.0
1.44136003984 -0.0398575962518 0.0
1.43313732432 0.00253783807495 0.0
0.71003559981 0.0298531101576 0.0
0.752223887076 0.00859563456249 0.0
0.568825724174 -0.0166934610525 0.0
1.45069115818 -0.0186291927708 0.0
1.4510953198 -0.0479594210068 0.0
1.42761321566 0.0205810648099 0.0
1.41249255442 0.0283746931431 0.0
1.45779067474 -0.013437241757 0.0
1.44928147961 -0.0359332876506 0.0
1.46274769583 0.0077291469681 0.0
1.44120255012 0.00363206152264 0.0
0.728539786943 -0.00179045399381 0.0
0.617347187834 -0.0185639284927 0.0
1.45812518966 0.0224801228482 0.0
0.67379729816 -0.00709721898453 0.0
0.664975053005 -0.0212854653095 0.0
0.630805868438 0.00284948357355 0.0
0.705039551444 -0.0182848938063 0.0
0.842280492059 -0.0112461731496 0.0
0.593414351435 -0.0118376693117 0.0
0.602228677851 -0.00052081436219 0.0
0.76701950369 -0.010073737941 0.0
0.700064785027 0.0419829139608 0.0
0.74517594367 -0.0221567623764 0.0
0.621553588252 -0.00504273553054 0.0
0.728833916943 -0.0139610375658 0.0
0.518558816842 0.0264427547731 0.0
1.19232859389 -0.0848799860255 0.0
0.772379129064 0.0138504525921 0.0
0.689863566293 0.0303760037222 0.0

SCALARS scalar1 double
LOOKUP_TABLE default
3.07716300347
6.61865813349
4.88775682114
5.44522188869
-6.06525932126
-2.49201090164
11.1209551201
10.1502699887
7.99303006377
7.35827426878
6.75793446438
6.96311335943
6.94498884944
6.39332398871
6.66502685095
6.11655193215
5.90012514226
5.75470663721
5.51959042613
5.32466212006
5.10736263427
4.84752893656
4.85809778688
4.76694528967
4.59749240772
4.81818440807
4.80320241229
5.03771946624
5.45633629182
5.42282068047
7.11465925393
4.4971557785
7.81104877375
6.60580331959
6.99407618201
6.92616065874
6.56218357138
6.63928949559
6.71058787906
6.41781421022
6.27143025982
6.11396084131
5.82590913197
5.50787405258
5.25402738509
5.1878468611
4.72049788996
4.67500182306
4.62681464536
4.60758507016
4.61630343187
4.59636068104
5.37747579678
5.0327720821
3.46000863814
1.2578804021
-0.989165409328
-3.15800881804
-6.57574631581
-6.72771398086
-6.44427452523
-6.17860022867
-6.29976141099
-6.33263112264
-6.97208524276
-6.3390310481
-6.08478308932
-6.31560395397
-5.84236113737
-5.4203696427
-5.53417573719
-5.2746409633
-4.80751564948
-4.9024551104
-4.96257212312
-4.46684584833
-4.65093848259
-6.06761604921
-4.18685071048
-5.30575085513
-5.38767403033
-5.568706565
-5.85541807652
-5.02425376129
-7.6085905705
-6.56802472483
-6.22816421137
-6.48366415325
-6.82553429341
-6.28742553839
-6.30803956103
-6.49812817336
-5.90364167192
-5.87962718182
-5.80009839432
-5.31000178142
-5.40455658695
-5.20998008938
-4.96301690148
-5.35397411113
-5.6536439476
-5.36514332131
-5.97525841217
-6.05348668387
-6.99363398064
-9.47222926487
-10.6852451125
2.6239928447
-0.0812459507254
0.002399925668
-3.24934902624
-0.00230754774718
0.491295120791
0.692518039073
0.546718747492
0.729371402474
0.776960628454
1.03710164664
0.992554006806
1.11637398909
0.961406579605
1.11775668501
0.814711567226
0.99653834198
0.203619225363
0.219682514609
0.141183273672
2.4601855284
-0.88216837041
-1.76942994622
-1.39410240825
-1.9716860003
-1.35370095542
-1.64576852364
-1.53604285703
-1.48465763322
-1.40247737488
-1.55147261594
2.10792384112
0.950862549731
-1.26670516757
-1.53452124355
2.1480939757
1.59212785907
-0.370913820598
-1.45290219666
2.30640789791
2.49389103608
1.80638318734
1.92059399837
2.16715901821
2.43671137499
1.96379697443
2.23456768324
2.11643640261
0.846394449588
-2.07200672901
-2.09279632304
-1.96974419443
1.8772530792
2.12310616307
1.10305827496
2.93216049517
2.99017787511
1.98705746051
-2.32864424004
-2.29718713516
-2.04398680017
-2.69138644403
2.92979662305
2.34821107943
-2.42177496208
-2.69033266374
-2.52520788211
-2.48883466836
-2.66938681215
-2.27461038567
-2.89778306496
-2.19780189188
3.29004140416
3.4614367859
3.66816998561
3.30270382264
3.90903386409
3.17249972868
3.87526433313
3.58743186667
4.11824191702
-3.48657400503
-2.38394023683
-2.77713877033
-3.05723918068
2.2622024644
0.0181527097191
0.0764368393251
-3.64498583739
-3.13303284301
0.136343806818
-0.0116972028768
4.02516785167
3.00375969838
3.9295986844
-0.575688080153
-3.45226655411
-3.7202799218
-3.2212623694
-3.43329015007
-3.62399651448
-3.3720991926
-3.8073864295
-3.1874014491
-3.99419330019
-3.33432433492
-3.2209632347
4.0633875671
3.30624534023
3.99295390795
3.08128491701
3.05868078945
4.04590689991
3.97307861841
3.27712532014
-0.0300071057198
-0.0510309140608
3.84757454546
3.53446098199
0.475767559551
0.570070887065
3.89298620882
3.78181615353
4.12197830652
3.71179567219
4.19748817827
3.58798201718
4.14562307104
0.528045169905
0.627455704692
0.439782730639
0.607507128586
0.230141654257
0.531568500754
0.267741043444
0.36158956114
0.460268102152
0.224160437283
0.121922303234
0.285382229449
0.204462987426
0.444655525984
0.439380856873
0.320230499255
0.546510449561
0.447021089701
0.639578987119
0.371002105515
0.682673060541
0.561856548693
0.672262244653
0.604164485932
4.06745519583
4.14021292355
3.55140596751
3.49248974524
3.93262559348
4.01512154305
3.67674076279
3.7921250895
3.78862023468
-3.395418434
-3.55720617934
0.137132774978
-3.8362892611
-3.28514508848
-3.30628219212
2.04118105355
-0.37194496296
-4.19628387565
-3.71116052194
-3.79448293348
-4.09811884319
-4.18259485126
-3.84983391236
-3.91124540922
-3.80514511496
-4.05151769386
-3.62973412734
-1.20347661075
-0.368392989674
-3.60791757983
-1.21838495717
-0.957421823742
-3.49676762849
3.93418358718
-1.02404772506
-1.14253735467
3.67816747998
-3.65125198683
-0.998935101793
-1.15983632057
-1.28937584525
-1.0111650955
4.07334012652
-1.12430147607
-1.67450857253
-1.53244984601
2.01110097808
1.47362231462
2.17823575727
2.43739133345
1.76814113474
2.19911854653
2.02959416428
1.9313526251
2.45214908541
2.2997157929
2.08815564288
2.02604813643
1.08950136762
2.40564224942
1.77260424813
2.01323188217
1.607108514
2.02291786573
0.726927617947
1.9203793808
2.54720536664
1.8681741234
2.43721848213
2.03658241927
0.37591708834
-1.58821098493
2.19176008185
2.17553691923
-1.40639856817
-1.39520796508
3.70383612695
1.75139039054
2.04238788988
0.612425998555
0.5898942781
-1.9706635604
1.26194111635
-4.31968285064
-3.4886461909
-1.37859322596
2.27351880908
-1.4443472788
0.0743930654713
-0.860774495802
-0.244274560393
-3.82339239862
4.35238975972
3.73371404191
-3.85837173054
-0.83112571697
-0.601511458932
-4.30638614276
-4.2070970396
-4.34264496048
-0.607601449161
-0.712355820519
-1.1602990796
-1.25328424183
-0.623311266962
-0.734230433177
-0.6711905382
-0.924261608482
-4.19435043773
-4.2460500757
-0.862239894114
-4.25417739108
-4.21852469896
-4.39270473619
-4.23704548419
4.35991392113
4.26932791017
4.32397151002
4.26945926813
-4.31429236948
-4.21034100218
4.35923957735
4.29681692183
4.43702038178
1.01794114357
-4.36063256493
-4.36945126979

SCALARS scalar2 double
LOOKUP_TABLE default
3.07716300347
6.61865813349
4.88775682114
5.44522188869
-6.06525932126
-2.49201090164
11.1209551201
10.1502699887
7.99303006377
7.35827426878
6.75793446438
6.96311335943
6.94498884944
6.39332398871
6.66502685095
6.11655193215
5.90012514226
5.75470663721
5.51959042613
5.32466212006
5.10736263427
4.84752893656
4.85809778688
4.76694528967
4.59749240772
4.81818440807
4.80320241229
5.03771946624
5.45633629182
5.42282068047
7.11465925393
4.4971557785
7.81104877375
6.60580331959
6.99407618201
6.92616065874
6.56218357138
6.63928949559
6.71058787906
6.41781421022
6.27143025982
6.11396084131
5.82590913197
5.50787405258
5.25402738509
5.1878468611
4.72049788996
4.67500182306
4.62681464536
4.60758507016
4.61630343187
4.59636068104
5.37747579678
5.0327720821
3.46000863814
1.2578804021
-0.989165409328
-3.15800881804
-6.57574631581
-6.72771398086
-6.44427452523
-6.17860022867
-6.29976141099
-6.33263112264
-6.97208524276
-6.3390310481
-6.08478308932
-6.31560395397
-5.84236113737
-5.4203696427
-5.53417573719
-5.2746409633
-4.80751564948
-4.9024551104
-4.96257212312
-4.46684584833
-4.65093848259
-6.06761604921
-4.18685071048
-5.30575085513
-5.38767403033
-5.568706565
-5.85541807652
-5.02425376129
-7.6085905705
-6.56802472483
-6.22816421137
-6.48366415325
-6.82553429341
-6.28742553839
-6.30803956103
-6.49812817336
-5.90364167192
-5.87962718182
-5.80009839432
-5.31000178142
-5.40455658695
-5.20998008938
-4.96301690148
-5.35397411113
-5.6536439476
-5.36514332131
-5.97525841217
-6.05348668387
-6.99363398064
-9.47222926487
-10.6852451125
2.6239928447
-0.0812459507254
0.002399925668
-3.24934902624
-0.00230754774718
0.491295120791
0.692518039073
0.546718747492
0.729371402474
0.776960628454
1.03710164664
0.992554006806
1.11637398909
0.961406579605
1.11775668501
0.814711567226
0.99653834198
0.203619225363
0.219682514609
0.141183273672
2.4601855284
-0.88216837041
-1.76942994622
-1.39410240825
-1.9716860003
-1.35370095542
-1.64576852364
-1.53604285703
-1.48465763322
-1.40247737488
-1.55147261594
2.10792384112
0.950862549731
-1.26670516757
-1.53452124355
2.1480939757
1.59212785907
-0.370913820598
-1.45290219666
2.30640789791
2.49389103608
1.80638318734
1.92059399837
2.16715901821
2.43671137499
1.96379697443
2.23456768324
2.11643640261
0.846394449588
-2.07200672901
-2.09279632304
-1.96974419443
1.8772530792
2.12310616307
1.10305827496
2.93216049517
2.99017787511
1.98705746051
-2.32864424004
-2.29718713516
-2.04398680017
-2.69138644403
2.92979662305
2.34821107943
-2.42177496208
-2.69033266374
-2.52520788211
-2.48883466836
-2.66938681215
-2.27461038567
-2.89778306496
-2.19780189188
3.29004140416
3.4614367859
3.66816998561
3.30270382264
3.90903386409
3.17249972868
3.87526433313
3.58743186667
4.11824191702
-3.48657400503
-2.38394023683
-2.77713877033
-3.05723918068
2.2622024644
0.0181527097191
0.0764368393251
-3.64498583739
-3.13303284301
0.136343806818
-0.0116972028768
4.02516785167
3.00375969838
3.9295986844
-0.575688080153
-3.45226655411
-3.7202799218
-3.2212623694
-3.43329015007
-3.62399651448
-3.3720991926
-3.8073864295
-3.1874014491
-3.99419330019
-3.33432433492
-3.2209632347
4.0633875671
3.30624534023
3.99295390795
3.08128491701
3.05868078945
4.04590689991
3.97307861841
3.27712532014