# vtk DataFile Version 2.0
2D Simulation Python
ASCII
DATASET UNSTRUCTURED_GRID
FIELD FieldData 1
NODES 1 2 int
386 659

POINTS 386 double
0.0 1.0 0.0
1.725 1.0963119134743955 0.0
8.275 0.9036880865256045 0.0
10.0 1.0 0.0
10.0 -2.669216193536246e-17 0.0
0.0 0.0 0.0
0.1916666666663293 1.0130923951248798 0.0
0.3833333333324708 1.0259951427673197 0.0
0.574999999998553 1.0385213425486401 0.0
0.7666666666645966 1.0504895485049646 0.0
0.9583333333312576 1.0617263973894122 0.0
1.149999999998384 1.0720691198934464 0.0
1.341666666665662 1.0813678984118145 0.0
1.533333333332819 1.0894880371979376 0.0
1.92348484848444 1.1019070565897413 0.0
2.121969696968978 1.1059192913928704 0.0
2.320454545453434 1.1082862963916964 0.0
2.518939393937826 1.1089713052227026 0.0
2.717424242422235 1.1079636777378097 0.0
2.915909090906411 1.105279065276338 0.0
3.1143939393908 1.1009591675548918 0.0
3.312878787875129 1.0950710849514083 0.0
3.511363636359531 1.0877062762441856 0.0
3.709848484843827 1.078979137995261 0.0
3.90833333332816 1.0690252276443042 0.0
4.106818181812215 1.0579991579135606 0.0
4.305303030296804 1.0460721952295877 0.0
4.503787878781365 1.0334295994655172 0.0
4.702272727265711 1.0202677463247989 0.0
4.900757575750005 1.0067910770643669 0.0
5.099242424235156 0.9932089229366472 0.0
5.297727272720327 0.9797322536761403 0.0
5.496212121205663 0.9665704005353284 0.0
5.694696969690998 0.9539278047711695 0.0
5.89318181817668 0.9420008420870832 0.0
6.09166666666213 0.9309747723562104 0.0
6.290151515147423 0.9210208620051519 0.0
6.488636363633031 0.912293723756117 0.0
6.687121212118713 0.9049289150487978 0.0
6.885606060604342 0.8990408324452334 0.0
7.084090909089381 0.8947209347237364 0.0
7.282575757574369 0.8920363222622221 0.0
7.481060606059355 0.8910286947772995 0.0
7.679545454544343 0.8917137036082863 0.0
7.878030303029329 0.8940807086071023 0.0
8.076515151514705 0.8980929434102379 0.0
8.46666666666447 0.9105119628019563 0.0
8.658333333329285 0.9186321015879553 0.0
8.84999999999549 0.9279308801062388 0.0
9.041666666661694 0.93827360261019 0.0
9.233333333327899 0.9495104514945801 0.0
9.42499999999549 0.9614786574509783 0.0
9.616666666663775 0.9740048572324306 0.0
9.808333333331985 0.9869076048750055 0.0
10.0 0.7999999999999998 0.0
10.0 0.6000000000013869 0.0
10.0 0.4000000000016644 0.0
10.0 0.2000000000008322 0.0
9.799999999999999 -0.013658693137116176 0.0
9.6 -0.02710198052415203 0.0
9.399999999999999 -0.040117853488383697 0.0
9.2 -0.05250104393785951 0.0
8.999999999999998 -0.06405626156183189 0.0
8.799999999999997 -0.07460127367561827 0.0
8.599999999999998 -0.08396977913889929 0.0
8.399999999999997 -0.09201403102404533 0.0
8.199999999999998 -0.09860716667342428 0.0
7.999999999999997 -0.10364520839929722 0.0
7.799999999999997 -0.10704870327406688 0.0
7.599999999999998 -0.10876397615040881 0.0
7.399999999999997 -0.1087639761504088 0.0
7.199999999999998 -0.10704870327406682 0.0
6.999999999999997 -0.1036452083992971 0.0
6.799999999999997 -0.09860716667342409 0.0
6.599999999999998 -0.09201403102404511 0.0
6.399999999999997 -0.08396977913889903 0.0
6.199999999999998 -0.07460127367561803 0.0
5.999999999999997 -0.0640562615618316 0.0
5.799999999999998 -0.05250104393785926 0.0
5.599999999999998 -0.04011785348838348 0.0
5.399999999999999 -0.0271019805241519 0.0
5.199999999999998 -0.013658693137115947 0.0
4.999999999999999 1.1013889593537675e-16 0.0
4.799999999999999 0.013658693137116117 0.0
4.599999999999999 0.027101980524152067 0.0
4.399999999999999 0.04011785348838373 0.0
4.199999999999999 0.052501043937859454 0.0
3.999999999999999 0.06405626156183182 0.0
3.799999999999999 0.07460127367561814 0.0
3.599999999999999 0.08396977913889922 0.0
3.399999999999998 0.09201403102404526 0.0
3.199999999999998 0.09860716667342428 0.0
2.999999999999999 0.1036452083992972 0.0
2.799999999999998 0.10704870327406685 0.0
2.599999999999998 0.10876397615040881 0.0
2.399999999999999 0.1087639761504088 0.0
2.199999999999999 0.10704870327406682 0.0
1.999999999999998 0.10364520839929713 0.0
1.799999999999999 0.09860716667342417 0.0
1.6 0.09201403102404519 0.0
1.4 0.0839697791388992 0.0
1.199999999999999 0.07460127367561804 0.0
0.9999999999999982 0.06405626156183164 0.0
0.7999999999999989 0.05250104393785934 0.0
0.6000000000000014 0.040117853488383697 0.0
0.3999999999999986 0.027101980524151872 0.0
0.1999999999999993 0.013658693137115988 0.0
0.0 0.1999999999995579 0.0
0.0 0.3999999999989749 0.0
0.0 0.5999999999989468 0.0
0.0 0.7999999999994734 0.0
0.6678915725959558 0.536436958589839 0.0
9.332108427399964 0.5364369585890589 0.0
8.750132450591927 0.5506960869899322 0.0
1.2498675494039537 0.550696086989921 0.0
8.174032264135212 0.5498445052942911 0.0
1.825967735863654 0.5498445052937755 0.0
2.418567295624824 0.5617850340615124 0.0
7.581432704373232 0.5594009489283819 0.0
3.014784120622567 0.5616934278785433 0.0
6.985172458121188 0.5594364747951337 0.0
3.610726640972639 0.5614327340393148 0.0
6.386248723767179 0.5593777336384462 0.0
4.209309039669713 0.5605561502783603 0.0
5.802919286003517 0.5136288984503518 0.0
4.792575750270755 0.5113399422619378 0.0
5.297706186402614 0.5123265683307103 0.0
9.668948285380061 0.6905320538385755 0.0
0.33105171461725624 0.6919761272401842 0.0
4.516362448137511 0.3240043659809235 0.0
3.8986185490966 0.34187471357582433 0.0
6.080042400096589 0.32197231254632724 0.0
3.3008603596305743 0.3424405663022822 0.0
6.697929509029805 0.3381674960772651 0.0
7.8917286729276945 0.3371304152772316 0.0
2.1082713270713 0.34214099674333975 0.0
2.7040521558359196 0.34266174868253896 0.0
7.295944586981923 0.3376436086624967 0.0
9.037461182852388 0.6622297231057392 0.0
0.9625388171421155 0.6653149994527785 0.0
1.5203624097030919 0.3414073845718033 0.0
8.479637590294983 0.33710854881172264 0.0
8.46705744021449 0.6634886512118358 0.0
1.532942559782806 0.6679615402211849 0.0
0.9798849666140502 0.35265247157108065 0.0
9.020115033382817 0.3494517739230894 0.0
4.511080799328552 0.6684998044254498 0.0
3.9062200870698707 0.6694174313647083 0.0
6.084316098808868 0.6674306838708054 0.0
2.111050455320367 0.6694439167670118 0.0
7.888949544678595 0.6637673639349392 0.0
3.3102621739031353 0.67027317584356 0.0
6.6894888998481665 0.6648749008066491 0.0
2.714506990010662 0.6707449566784066 0.0
7.285493009986476 0.6645793105939781 0.0
0.34041031473394257 0.30380890176716835 0.0
9.659589685265157 0.3023035807102692 0.0
5.5810152634969565 0.31070063840391854 0.0
5.015878571805126 0.3115858437226289 0.0
5.5137985806325975 0.6846214391878306 0.0
5.080500727952708 0.6834787461142732 0.0
0.6685192030956227 0.7307372849086519 0.0
9.331480796899008 0.7270324467661532 0.0
8.753459913344232 0.7283922780982758 0.0
1.2465400866509957 0.7347786799313503 0.0
8.679620709650274 0.25429737969307864 0.0
1.3203792903477085 0.26121020818572066 0.0
0.6890603276779935 0.23358502770074155 0.0
9.310939672320577 0.2290892558240782 0.0
8.176669234715755 0.7273079197093691 0.0
1.8233307652831716 0.7355589971817061 0.0
8.093967824166539 0.25200182374648916 0.0
1.906032175832643 0.2607942518705065 0.0
7.499451686415813 0.25227016717492484 0.0
2.5005483135825175 0.2617073245298442 0.0
6.901915048676056 0.2528367456027141 0.0
3.0977519114141128 0.2615492196363592 0.0
6.299154625459925 0.25040412686224844 0.0
3.695333244186268 0.2608028196826672 0.0
2.4172390397506605 0.8208216507540084 0.0
7.582760960247228 0.7587161496744347 0.0
3.0138640667562826 0.8190123678029123 0.0
6.986135933239627 0.760056875813011 0.0
3.609502629158365 0.8132738283969404 0.0
6.389821800026214 0.7660095642222838 0.0
4.2057196025120325 0.8043986144490414 0.0
5.799639647217908 0.8166442730574626 0.0
4.795104887305768 0.8355747124984874 0.0
5.299095661741034 0.17247715312451756 0.0
4.297479556665692 0.2556827211796628 0.0
4.737830245696537 0.23324979591746933 0.0
5.859573993289756 0.22158201048066978 0.0
5.297257407561438 0.7082817889868053 0.0
0.20091758286607478 0.4981940613098657 0.0
9.799082417132857 0.49819406131032223 0.0
9.480683328253692 0.15162855378326368 0.0
0.5193166717456771 0.1711226800733623 0.0
9.558757026643876 0.504400119788672 0.0
0.4412429733535267 0.5044001197894197 0.0
9.503249178016192 0.8209972460230776 0.0
0.4967508219792289 0.8397085993946669 0.0
9.818892130171056 0.8189362895068618 0.0
0.18110786982737584 0.823780940700329 0.0
7.700116944406039 0.1432268099762295 0.0
2.2998830555930807 0.20537329708219293 0.0
8.8797361495177 0.16047823394315258 0.0
1.1202638504807292 0.20026334272999768 0.0
7.102384369458095 0.1441262441140575 0.0
2.8975752711929053 0.20477178820818093 0.0
6.502273621492959 0.14890646089978163 0.0
3.495752122939602 0.19992114335979175 0.0
1.705172848081281 0.20129849520331738 0.0
8.294827151917946 0.14638512712645577 0.0
4.0954488155448185 0.1909946838673288 0.0
8.582172158903719 0.798205494225864 0.0
1.4178278410925231 0.8470782524984756 0.0
8.925281788563497 0.8030147837632745 0.0
1.074718211430672 0.841408276374369 0.0
0.843714767885675 0.8374404501033649 0.0
9.156285232108049 0.8053844939784639 0.0
8.350503770871434 0.7960239812507991 0.0
1.649496229126785 0.8492879653824441 0.0
5.595954433159773 0.4934731959153352 0.0
4.999547461766641 0.4918689877572526 0.0
7.792864031262508 0.7884143525260685 0.0
2.207135968735987 0.8580171705920524 0.0
7.7882435010538815 0.5183088025324082 0.0
2.211756498944828 0.5183088025321086 0.0
2.809328102939547 0.8575166827146454 0.0
7.190671897057074 0.7878380658928351 0.0
3.4049442800379786 0.8524619382458944 0.0
6.594977699857072 0.7927677311110479 0.0
4.000623606138969 0.8432843046607462 0.0
5.992807911097384 0.8105670749954113 0.0
4.6023783010903205 0.8382482307304373 0.0
7.19104051737716 0.5185569682598344 0.0
2.8089581971551687 0.5185567843990526 0.0
6.593717629483236 0.5185878718990932 0.0
3.4049800489097404 0.5185307388017358 0.0
5.991319406879302 0.5132061182623701 0.0
4.002058402208371 0.5184571727635279 0.0
4.6042984609015125 0.5114329193939812 0.0
8.560337877784717 0.5207585121451969 0.0
1.4396621222122326 0.52075851214495 0.0
[...]
POINT_DATA 386
VECTORS vector double
1.0 0.0 0.0
0.0 0.0 0.0
0.0 0.0 0.0
0.0 0.0 0.0
0.0 0.0 0.0
1.0 0.0 0.0
0.0 0.0 0.0
0.0 0.0 0.0
0.0 0.0 0.0
0.0 0.0 0.0
0.0 0.0 0.0
0.0 0.0 0.0
0.0 0.0 0.0
0.0 0.0 0.0
0.0 0.0 0.0
0.0 0.0 0.0
0.0 0.0 0.0
0.0 0.0 0.0
0.0 0.0 0.0
0.0 0.0 0.0
0.0 0.0 0.0
0.0 0.0 0.0
0.0 0.0 0.0
0.0 0.0 0.0
0.0 0.0 0.0
0.0 0.0 0.0
0.0 0.0 0.0
0.0 0.0 0.0
0.0 0.0 0.0
0.0 0.0 0.0
0.0 0.0 0.0
0.0 0.0 0.0
0.0 0.0 0.0
0.0 0.0 0.0
0.0 0.0 0.0
0.0 0.0 0.0
0.0 0.0 0.0
0.0 0.0 0.0
0.0 0.0 0.0
0.0 0.0 0.0
0.0 0.0 0.0
0.0 0.0 0.0
0.0 0.0 0.0
0.0 0.0 0.0
0.0 0.0 0.0
0.0 0.0 0.0
0.0 0.0 0.0
0.0 0.0 0.0
0.0 0.0 0.0
0.0 0.0 0.0
0.0 0.0 0.0
0.0 0.0 0.0
0.0 0.0 0.0
0.0 0.0 0.0
0.991400251695 0.0490409848922 0.0
1.0251564624 -0.0065648093125 0.0
1.03500379333 0.00982967442861 0.0
1.1843380545 -0.00523885704647 0.0
0.0 0.0 0.0
0.0 0.0 0.0
0.0 0.0 0.0
0.0 0.0 0.0
0.0 0.0 0.0
0.0 0.0 0.0
0.0 0.0 0.0
0.0 0.0 0.0
0.0 0.0 0.0
0.0 0.0 0.0
0.0 0.0 0.0
0.0 0.0 0.0
0.0 0.0 0.0
0.0 0.0 0.0
0.0 0.0 0.0
0.0 0.0 0.0
0.0 0.0 0.0
0.0 0.0 0.0
0.0 0.0 0.0
0.0 0.0 0.0
0.0 0.0 0.0
0.0 0.0 0.0
0.0 0.0 0.0
0.0 0.0 0.0
0.0 0.0 0.0
0.0 0.0 0.0
0.0 0.0 0.0
0.0 0.0 0.0
0.0 0.0 0.0
0.0 0.0 0.0
0.0 0.0 0.0
0.0 0.0 0.0
0.0 0.0 0.0
0.0 0.0 0.0
0.0 0.0 0.0
0.0 0.0 0.0
0.0 0.0 0.0
0.0 0.0 0.0
0.0 0.0 0.0
0.0 0.0 0.0
0.0 0.0 0.0
0.0 0.0 0.0
0.0 0.0 0.0
0.0 0.0 0.0
0.0 0.0 0.0
0.0 0.0 0.0
0.0 0.0 0.0
0.0 0.0 0.0
0.0 0.0 0.0
1.0 0.0 0.0
1.0 0.0 0.0
1.0 0.0 0.0
1.0 0.0 0.0
1.03944227463 0.0527577014744 0.0
1.03745009093 0.0432946357511 0.0
1.05245372594 0.0384097232572 0.0
1.05491951631 0.0415093376432 0.0
1.06668849292 0.0197340790895 0.0
1.06585381378 0.0250511761829 0.0
1.0475750081 0.00203826517311 0.0
1.05051000982 0.00354284127785 0.0
1.04594002611 -0.0155495806042 0.0
1.04709196356 -0.0183868005128 0.0
1.03346237274 -0.0329217041926 0.0
1.03549120728 -0.0381273705328 0.0
1.01543460013 -0.0471585352007 0.0
1.05338466441 -0.0446925964511 0.0
1.04302256451 -0.0607477635497 0.0
1.04597700532 -0.0541979073457 0.0
0.959723424962 0.0304263521911 0.0
0.979603128898 0.0375684059584 0.0
0.972936266137 -0.0485628245655 0.0
1.00200624782 -0.0443722598413 0.0
1.0070619256 -0.0390684482852 0.0
1.02253833979 -0.0283580262977 0.0
1.01272538903 -0.0189648058195 0.0
1.02309783884 0.0134914650461 0.0
1.02935706245 0.0147281555024 0.0
1.03327818201 -0.00800756345541 0.0
1.02322268566 -0.0029503339733 0.0
0.973362571414 0.0493887733471 0.0
0.963267831356 0.0304987001159 0.0
1.01784156669 0.036536804996 0.0
1.01264684681 0.029578118882 0.0
0.998382283001 0.035268645624 0.0
0.978867155595 0.0170892250717 0.0
0.981433910219 0.0430134277267 0.0
0.969212717761 0.0466227671384 0.0
0.977470364922 -0.0506839931819 0.0
0.9867143845 -0.0378633944902 0.0
0.995872847448 -0.0446848476854 0.0
0.991180956757 0.00675042816718 0.0
1.01217345287 0.00689215113968 0.0
1.00156264203 -0.0245383194384 0.0
1.009442526 -0.0357916596225 0.0
1.00935505295 -0.00942270592813 0.0
1.02002686451 -0.0139873729244 0.0
0.959886907883 0.0462282441219 0.0
0.968706927371 0.0255639160736 0.0
0.955850503318 -0.0379204380131 0.0
0.95736621838 -0.0683021153136 0.0
0.969054865966 -0.0321891264062 0.0
0.93344983989 -0.0660515441357 0.0
0.94548394573 0.0454178628001 0.0
0.939691651225 0.0445786369376 0.0
0.964710311261 0.0357788885479 0.0
0.951577208706 0.0411644424648 0.0
0.976757170095 0.014398862071 0.0
0.985950632519 0.0419111930907 0.0
0.933550979304 0.0598592038983 0.0
0.944118680779 0.0254446974861 0.0
0.98999988834 0.0198124371584 0.0
0.964680078983 0.0252386816205 0.0
0.996075536131 0.00262927740985 0.0
1.01348784708 0.0260388275862 0.0
1.00208770621 -0.00970866049565 0.0
1.02538158174 0.00320561229168 0.0
0.997427428474 -0.0257364702179 0.0
1.01842989919 -0.0191945506892 0.0
0.996400299546 -0.0488592080257 0.0
0.995978780743 -0.0389746526541 0.0
1.21218041449 -0.00374487565928 0.0
1.27240179428 0.00858319123222 0.0
1.21218921301 -0.0211576364837 0.0
1.27568110493 -0.0236196805472 0.0
1.22167799069 -0.0427445493936 0.0
1.2776009219 -0.0507297780033 0.0
1.23632420835 -0.0621642400402 0.0
1.24741112388 -0.0652147655622 0.0
1.23299090815 -0.0697715953189 0.0
1.23392242276 -0.066275694487 0.0
0.972229297935 -0.0546672526701 0.0
1.11087031269 -0.0574873503885 0.0
1.10043615072 -0.0129425072104 0.0
1.1008566098 -0.0825231048742 0.0
1.03852451513 0.0260795353598 0.0
1.05082975281 0.0149560758539 0.0
1.23145198763 0.05198711141 0.0
1.2021665636 0.0668200112896 0.0
1.04448327388 0.0351975687633 0.0
1.04584421745 0.0491661128025 0.0
1.1929074505 0.0529438232266 0.0
1.21580282616 0.0708353349259 0.0
1.02598468777 -0.030452154689 0.0
1.11966154737 -0.0373892660662 0.0
1.16399611901 -0.000310493834147 0.0
1.19678739742 0.00807966915987 0.0
1.20967327751 0.0334027886637 0.0
1.21769781698 0.0593554700187 0.0
1.16419306298 -0.0220120110593 0.0
1.20174243592 -0.0223248623154 0.0
1.16930602408 -0.0439137242378 0.0
1.20759130858 -0.0503245216146 0.0
1.19765201149 0.0363178606883 0.0
1.17481577935 0.020140668495 0.0
1.21234881803 -0.0728711770569 0.0
1.2328673451 0.0519275542699 0.0
1.21096181614 0.0549215374429 0.0
1.231320748 0.0675814816057 0.0
1.21873247868 0.0283037753275 0.0
1.22610208909 0.0679080023254 0.0
1.23029525795 0.0725843628483 0.0
1.22816327809 0.0457228060807 0.0
1.2008020088 0.00603714788425 0.0
1.07333459359 -0.0515177678125 0.0
1.06449486128 -0.0649236228725 0.0
1.27716516131 0.00956525779859 0.0
1.20701223692 0.0117659012181 0.0
1.08792811073 0.00995513657674 0.0
1.08730035697 0.00657041667648 0.0
1.20042428311 0.000766754684071 0.0
1.28190387658 -0.0234711000729 0.0
1.21017419515 -0.0213054570815 0.0
1.28887799455 -0.0535768419796 0.0
1.22981869457 -0.0410000539349 0.0
1.25523822322 -0.0675264044786 0.0
1.22676851529 -0.0665330325715 0.0
1.08635941834 -0.0135242734964 0.0
1.0903212582 -0.0128556659724 0.0
1.0788290397 -0.0354292513471 0.0
1.0837746387 -0.0324685579174 0.0
1.06747747814 -0.0416621649059 0.0
1.07112570111 -0.0487608246569 0.0
1.05263009101 -0.0573334132387 0.0
1.06385154514 0.0343765150272 0.0
1.05897585805 0.0371667392791 0.0
1.06268637224 0.0437666926495 0.0
1.05436152276 0.0507869896257 0.0
1.06116197128 0.0464314611185 0.0
1.05661348073 0.0499095211694 0.0
1.05475380381 -0.060059147806 0.0
1.06922202845 0.0269756232533 0.0
1.07356536849 0.0313354180459 0.0
1.06585859083 0.0180363154486 0.0
1.0719469358 0.0153732305384 0.0
1.06608826478 -0.0460694447143 0.0
1.07660797722 -0.0426683424585 0.0
1.07843070418 -0.0279760291382 0.0
1.08031079754 -0.0260397658789 0.0
1.08364526498 -0.00851343731362 0.0
1.08659004409 -0.00350277943922 0.0
1.2414552928 -0.0823096929342 0.0
1.22221969464 -0.0621517905673 0.0
1.28173364819 -0.0575672668531 0.0
1.20217220751 0.0381687638349 0.0
1.23800416597 0.019113293567 0.0
1.20616930621 -0.0421138493988 0.0
1.2800488113 -0.0348910029307 0.0
1.20174391954 -0.0209393568799 0.0
1.27473935756 -0.00332228298502 0.0
1.31563094513 -0.0790149629849 0.0
1.2851937682 -0.0777010438764 0.0
1.08452426322 0.108918677742 0.0
1.36677828729 0.0316648409456 0.0
1.21863579256 0.0831632854531 0.0
1.22318320207 0.0672504831867 0.0
1.01390671581 0.035857605366 0.0
1.02268938158 0.0533666706676 0.0
1.20339061904 0.0418844358639 0.0
1.17705576636 0.0667973935194 0.0
1.15895137241 0.0471306707459 0.0
1.19390799795 0.0124042048085 0.0
1.1539877442 -0.0457847977323 0.0
1.21937495618 -0.0725973998956 0.0
1.15572158621 0.0260663685169 0.0
1.1957316275 -0.0190128423542 0.0
1.16393074983 0.00415524479561 0.0
1.20608474211 -0.0474095762359 0.0
1.01884104338 0.0315680796176 0.0
1.02714324211 0.0421761734983 0.0
1.22056794995 -0.0702354654476 0.0
1.03463157544 0.0201288665752 0.0
1.04053038717 0.0266609480396 0.0
1.25722909931 -0.0932270751742 0.0
1.31239637994 -0.0726364861841 0.0
1.05122416976 0.00290662625711 0.0
1.04466096952 0.00476797146646 0.0
1.22502021734 -0.0490480037975 0.0
1.24309599941 -0.0597087667016 0.0
1.05201788808 -0.0196214502006 0.0
1.04281084282 -0.0141984804439 0.0
1.02952983239 -0.0351892811605 0.0
1.04076127261 -0.040315850808 0.0
1.23598161508 -0.0762818149819 0.0
1.02243938641 -0.0562338366427 0.0
0.982858610009 -0.0321294696252 0.0
0.982399669515 -0.0573901464127 0.0
1.04123823114 0.0446225303561 0.0
1.02621698288 0.0340232195912 0.0
0.973728646783 -0.04871277623 0.0
0.959521426713 -0.040850173457 0.0
0.988870520315 -0.0449293828926 0.0
1.00098829276 0.0141732507847 0.0
0.987624770991 -0.00581308423115 0.0
0.985240955893 -0.0290718502952 0.0
0.978963448491 -0.0297325056546 0.0
0.991406619094 -0.0160070229579 0.0
0.999506702264 -0.00870255246529 0.0
1.0372667317 0.0378889949443 0.0
1.03273445265 0.0437466265587 0.0
0.956840833215 -0.0458170034085 0.0
1.0389575601 0.0162443482247 0.0
1.05705376721 0.0233355391174 0.0
1.04430058807 0.0289653588532 0.0
1.05516272347 0.0222270711356 0.0
1.01517568251 0.0447638031413 0.0
1.01971007451 0.0558430603318 0.0
0.975262082979 -0.0309127860966 0.0
0.980166681232 -0.0452054612155 0.0
0.989900341786 -0.0153197332833 0.0
0.997006948665 -0.0295378568405 0.0
1.0200903619 0.0519455544262 0.0
1.0301467245 0.0375184235225 0.0
0.99429225317 -0.000800275037661 0.0
1.00432936959 -0.00740759894213 0.0
0.972361550154 -0.0473573649489 0.0
0.966575949497 -0.0531974043641 0.0
1.30169350319 -0.102374011771 0.0
0.991159145096 -0.0449455473794 0.0
0.974192643881 -0.0502030556266 0.0
1.03470085493 -0.0686015086908 0.0
1.04140674304 -0.0504911796738 0.0
0.990975166476 0.0126788301695 0.0
0.971462423471 0.0431845999292 0.0
1.25585185275 0.0629331545353 0.0
1.25252352134 0.0810464890663 0.0
1.01534441148 -0.0157242059027 0.0
1.03189423277 -0.00766983849088 0.0
1.03127137197 0.0381153181765 0.0
1.0271417743 0.0614778753692 0.0
1.07180212576 0.033179539273 0.0
1.06352757333 0.0420119809972 0.0
1.24843633708 -0.00308177478748 0.0
1.22302032058 0.0687273420787 0.0
1.28963629751 0.0649399382556 0.0
1.30442174665 -0.103776429187 0.0
1.08089651922 0.0148545856174 0.0
1.07344105343 0.0232095660005 0.0
1.2554038704 -0.0678408536658 0.0
1.22230499339 -0.0462487646003 0.0
1.15244529199 -0.0894595963887 0.0
1.08325759818 -0.0014515839416 0.0
1.08668750357 -0.00402758671936 0.0
1.03030909161 -0.0596623363204 0.0
1.04514155135 -0.0366666097919 0.0
1.08144567787 -0.0236758618004 0.0
1.08290953042 -0.0247106353767 0.0
1.07124946421 -0.0441554644578 0.0
1.07362968925 -0.0469864711316 0.0
1.19190765833 -0.0171765578647 0.0
1.14081191139 -0.0524894514151 0.0
1.05612078949 -0.0585373342929 0.0
1.1762459194 0.0138860165646 0.0
1.13540602338 -0.0299258611939 0.0
1.18763486448 0.0435047259136 0.0
1.1488544714 -0.00875416817614 0.0
1.23764463587 0.0763949382956 0.0
1.24661091684 0.0702390289294 0.0
1.23522740765 0.0536752980714 0.0
1.20478811641 0.0615850678438 0.0
1.21786996631 0.0692352433029 0.0
1.18515114483 0.0094513945813 0.0
1.22341678386 0.0300819055362 0.0
1.18380555398 0.0365258465771 0.0
1.20126460965 0.0559551695121 0.0
1.29790049863 0.0303573635262 0.0
1.27300900055 0.0827117511965 0.0
1.24282911414 0.0629792065701 0.0

SCALARS scalar1 double
LOOKUP_TABLE default
4.5672929778
8.07185290012
20.5379175416
14.7136079002
-9.84598067963
-3.139164114
10.9937434773
10.3200895474
9.90935331147
9.30061394242
7.64563282406
8.71708835623
8.41158185941
7.03580778583
7.85898111965
6.95518563612
6.42230422232
6.42438410041
7.10905838744
6.4840988415
6.54405409808
7.37159820378
6.79760610736
6.93907597632
7.96178675581
7.40240524703
7.65406000409
8.98479958737
9.42003494838
9.90368591132
12.2049692337
8.67263110482
14.3950962501
12.793727405
13.4910064014
14.0999463181
12.5026908954
12.970854919
16.0936522282
13.9412390455
14.2650788152
17.4965150705
14.613013991
14.5578959261
16.6222403198
21.1663353745
14.4767968932
18.2208816687
17.0699098857
12.381950109
14.8077908997
13.9614539893
13.1534791106
14.0239935021
-0.760497183441
0.0789351698959
-0.0896292987826
1.1113605928
-11.5980408846
-10.3683782672
-10.7079846026
-9.58523701469
-7.53972718803
-8.5657882857
-9.46092354369
-7.4291433198
-8.11184432327
-8.80076558745
-7.1096149946
-7.8562595275
-8.62559283092
-7.11196793224
-7.96522244171
-8.89358847213
-7.43101311275
-8.4929144013
-9.63675650247
-10.0574360986
-7.47139501852
-8.94922577899
-8.80016762125
-9.2160708465
-10.215396801
-9.55489477788
-15.72187877
-17.1339065408
-15.9460059093
-13.9516355597
-21.6748633888
-19.5991540056
-16.4689144712
-26.965517396
-23.0124022299
-18.2485694807
-29.9893421498
-24.0100554503
-18.2123074875
-28.3434884223
-21.7637698622
-16.4873679553
-23.4822768862
-17.2777163765
-12.3627284607
-15.799710121
-15.6203807378
-14.1072810189
-13.1253115209
1.86271833045
-0.382323938042
0.477700511833
-2.56235611049
-0.0325195495395
-0.0680402694606
-0.0914064534618
-0.0541713828582
-0.100878825141
-0.0480248751501
0.158314589832
0.253160345577
0.162275736154
0.242586477263
0.16724866309
0.227112419184
0.172347367175
-0.0602095868983
-0.0521089227916
0.132162655772
0.424140917143
0.466837434708
-0.532241689113
-0.502211115136
-0.312856018585
-0.535883934786
-0.270668531969
-0.254910254244
-0.555398523062
-0.547537321184
-0.250507389112
0.63383040124
0.367639831549
-0.558721435592
-0.278002184873
0.700049811714
0.326631682188
-0.642399433789
-0.37762722882
0.404836087171
0.364843169951
0.554812106193
0.262181909137
0.718137713338
0.338638236388
0.615951190813
0.328244270429
0.642940926868
-0.552382293193
-0.479660751522
-0.296102778955
-0.321082811319
0.490389504576
0.532226460655
0.38603537328
0.528231265803
0.58468592272
0.347606661549
-0.365141305272
-0.481229424419
-0.31149019119
-0.328139343613
0.653365500872
0.329669831131
-0.331893444466
-0.469000757265
-0.317095075257
-0.466444380978
-0.325911516409
-0.503047861099
-0.345994215432
-0.528082295801
-1.0051624474
-2.28561377049
-1.07572791662
-2.27054921695
-1.25514122325
-2.23721284313
-1.57813507512
-2.39718150668
-1.72480895206
1.86150908104
-0.494143336045
1.04795925445
1.05123108067
-0.628639202277
0.0103670404077
0.0246966414968
2.15168310557
2.50626380695
0.00113313176102
0.067407812845
-2.26881561795
-2.13425491627
-1.32285398586
-0.563383521347
1.26202593657
2.37306356712
1.7447408167
2.22216866512
1.28464048731
2.35151083049
1.49183083375
2.27791987659
2.332068357
1.44206718988
2.1780146767
-2.42857783022
-1.682374287
-2.00614604448
-1.23914020694
-1.86087054797
-2.31094754168
-2.12208974086
-0.954879046436
-0.04034825569
-0.00761874786343
-2.31656068698
-0.614573804165
-0.0857576921328
0.0479515712701
-0.649207479049
-2.54975168856
-0.80887417156
-2.55248736744
-1.13578305019
-2.45441369944
-1.55072790185
-0.0668618118102
0.0388322035502
-0.0570344455255
0.0309785491407
-0.0570277235012
0.0153990469687
-0.0236020161005
-0.0280607669255
0.005354238588
0.0708989220371
0.0378524625734
-0.0428731171168
-0.00598809630823
-0.0144418894674
0.0732344743507
-0.04846338554
0.0104372528286
-0.0290432933248
-0.0118548880777
-0.064564020314
-0.00267922227863
-0.0809306929515
0.00166108750625
-0.0878625446764
-1.18806165618
-0.827214029243
-2.40770124101
-1.48807481211
-2.73010744143
-0.599214648855
-2.4984796469
-0.50541135275
-2.49438483905
1.66922815788
1.66208188104
1.60227520926
2.50348087649
1.23975844711
1.7943871297
0.259780718856
0.178690275177
1.84194759498
0.500452532863
0.293916304698
1.71096075554
0.769868882945
2.61597842126
0.258480175683
1.6753690169
0.369551074928
1.82673096298
-0.059612788866
-0.253501617368
1.9622097824
-0.059570062899
-0.268156821196
2.19861902224
-2.45149158526
-0.292742743024
-0.0832501289114
-2.60114889772
1.5870732395
-0.283336116392
-0.0817606200829
-0.0792678456931
-0.25989985489
-2.21665404195
-0.232338865227
-0.326392782017
-0.275497290532
0.294189413572
0.196402385747
0.391516582643
0.374494818875
0.529301860696
0.378647443766
0.330439448852
0.352035058108
0.342351961204
0.325498228152
0.389200116676
0.276029629733
0.227034001559
0.196761507896
0.201582480805
0.326875273298
0.214121551375
0.281830648013
0.187256890062
0.261592826918
0.159225111445
0.62412252675
0.144272293241
0.693321132003
-0.214635002402
-0.0825848822143
0.140726475673
0.720301461838
-0.432991603525
-0.424710374644
-1.04454601435
0.536168710544
0.380794992701
0.131096658897
0.0877808472294
-0.327822919292
-0.27082501027
0.945389487241
1.93630951645
0.575535425028
0.17365979927
-0.170336569757
-0.144815907464
0.0137439810735
0.127063420264
0.220468567846
-2.27100747119
-0.653490831149
2.40335611311
0.0159665318049
0.131780057482
2.19154696611
1.73779197276
-0.269205448038
0.131122760519
-0.024979680217
-0.0807704574064
-0.0511801629032
0.133000444917
-0.0205723552622
0.128374387404
-0.00178191119325
0.943026974254
-0.584425904973
0.12428575307
0.479904084973
-0.651900666767
0.956451047753
-0.544419868308
-0.414624050584
-2.23034236316
-2.00484064467
0.164236890667
1.79786337176
-0.193939815993
-1.59372641925
0.37307838113
1.38938900216
-1.0305774693
2.25474241116
0.142406000056

SCALARS scalar2 double
LOOKUP_TABLE default
4.5672929778
8.07185290012
20.5379175416
14.7136079002
-9.84598067963
-3.139164114
10.9937434773
10.3200895474
9.90935331147
9.30061394242
7.64563282406
8.71708835623
8.41158185941
7.03580778583
7.85898111965
6.95518563612
6.42230422232
6.42438410041
7.10905838744
6.4840988415
6.54405409808
7.37159820378
6.79760610736
6.93907597632
7.96178675581
7.40240524703
7.65406000409
8.98479958737
9.42003494838
9.90368591132
12.2049692337
8.67263110482
14.3950962501
12.793727405
13.4910064014
14.0999463181
12.5026908954
12.970854919
16.0936522282
13.9412390455
14.2650788152
17.4965150705
14.613013991
14.5578959261
16.6222403198
21.1663353745
14.4767968932
18.2208816687
17.0699098857
12.381950109
14.8077908997
13.9614539893
13.1534791106
14.0239935021
-0.760497183441
0.0789351698959
-0.0896292987826
1.1113605928
-11.5980408846
-10.3683782672
-10.7079846026
-9.58523701469
-7.53972718803
-8.5657882857
-9.46092354369
-7.4291433198
-8.11184432327
-8.80076558745
-7.1096149946
-7.8562595275
-8.62559283092
-7.11196793224
-7.96522244171
-8.89358847213
-7.43101311275
-8.4929144013
-9.63675650247
-10.0574360986
-7.47139501852
-8.94922577899
-8.80016762125
-9.2160708465
-10.215396801
-9.55489477788
-15.72187877
-17.1339065408
-15.9460059093
-13.9516355597
-21.6748633888
-19.5991540056
-16.4689144712
-26.965517396
-23.0124022299
-18.2485694807
-29.9893421498
-24.0100554503
-18.2123074875
-28.3434884223
-21.7637698622
-16.4873679553
-23.4822768862
-17.2777163765
-12.3627284607
-15.799710121
-15.6203807378
-14.1072810189
-13.1253115209
1.86271833045
-0.382323938042
0.477700511833
-2.56235611049
-0.0325195495395
-0.0680402694606
-0.0914064534618
-0.0541713828582
-0.100878825141
-0.0480248751501
0.158314589832
0.253160345577
0.162275736154
0.242586477263
0.16724866309
0.227112419184
0.172347367175
-0.0602095868983
-0.0521089227916
0.132162655772
0.424140917143
0.466837434708
-0.532241689113
-0.502211115136
-0.312856018585
-0.535883934786
-0.270668531969
-0.254910254244
-0.555398523062
-0.547537321184
-0.250507389112
0.63383040124
0.367639831549
-0.558721435592
-0.278002184873
0.700049811714
0.326631682188
-0.642399433789
-0.37762722882
0.404836087171
0.364843169951
0.554812106193
0.262181909137
0.718137713338
0.338638236388
0.615951190813
0.328244270429
0.642940926868
-0.552382293193
-0.479660751522
-0.296102778955
-0.321082811319
0.490389504576
0.532226460655
0.38603537328
0.528231265803
0.58468592272
0.347606661549
-0.365141305272
-0.481229424419
-0.31149019119
-0.328139343613
0.653365500872
0.329669831131
-0.331893444466
-0.469000757265
-0.317095075257
-0.466444380978
-0.325911516409
-0.503047861099
-0.345994215432
-0.528082295801
-1.0051624474
-2.28561377049
-1.07572791662
-2.27054921695
-1.25514122325
-2.23721284313
-1.57813507512
-2.39718150668
-1.72480895206
1.86150908104
-0.494143336045
1.04795925445
1.05123108067
-0.628639202277
0.0103670404077
0.0246966414968
2.15168310557
2.50626380695
0.00113313176102
0.067407812845
-2.26881561795
-2.13425491627
-1.32285398586
-0.563383521347
1.26202593657
2.37306356712
1.7447408167
2.22216866512
1.28464048731
2.35151083049
1.49183083375