# vtk DataFile Version 2.0
2D Simulation Python
ASCII
DATASET UNSTRUCTURED_GRID
FIELD FieldData 1
NODES 1 2 int
386 659

POINTS 386 double
0.0 1.0 0.0
1.725 1.0190871762769178 0.0
8.275 0.980912823723082 0.0
10.0 1.0 0.0
10.0 -5.463477766212094e-17 0.0
0.0 0.0 0.0
0.1916666666663293 1.0228960426077691 0.0
0.3833333333324708 1.0261341643251427 0.0
0.574999999998553 1.0069342017132583 0.0
0.7666666666645966 0.9817807216725296 0.0
0.9583333333312576 0.9722698196168443 0.0
1.149999999998384 0.986567297969519 0.0
1.341666666665662 1.0123977297843099 0.0
1.533333333332819 1.0275838072231984 0.0
1.92348484848444 0.9932716817180517 0.0
2.121969696968978 0.9736160758578387 0.0
2.320454545453434 0.9781153968811656 0.0
2.518939393937826 1.0026504406181396 0.0
2.717424242422235 1.0247589613331678 0.0
2.915909090906411 1.024200235982308 0.0
3.1143939393908 1.001485787033761 0.0
3.312878787875129 0.9774110750336885 0.0
3.511363636359531 0.9740169042600938 0.0
3.709848484843827 0.99441069521739 0.0
3.90833333332816 1.0199215888325832 0.0
4.106818181812215 1.0271939323723145 0.0
4.305303030296804 1.009569772852494 0.0
4.503787878781365 0.9831843251217669 0.0
4.702272727265711 0.9721939109346731 0.0
4.900757575750005 0.9866604395688976 0.0
5.099242424235156 1.0133395604292759 0.0
5.297727272720327 1.027806089065182 0.0
5.496212121205663 1.0168156748796833 0.0
5.694696969690998 0.9904302271491118 0.0
5.89318181817668 0.9728060676280295 0.0
6.09166666666213 0.9800784111664649 0.0
6.290151515147423 1.0055893047814086 0.0
6.488636363633031 1.0259830957395284 0.0
6.687121212118713 1.0225889249668176 0.0
6.885606060604342 0.9985142129669191 0.0
7.084090909089381 0.9757997640179851 0.0
7.282575757574369 0.9752410386666132 0.0
7.481060606059355 0.9973495593814666 0.0
7.679545454544343 1.021884603118641 0.0
7.878030303029329 1.026383924142238 0.0
8.076515151514705 1.0067283182820648 0.0
8.46666666666447 0.9724161927767463 0.0
8.658333333329285 0.9876022702150554 0.0
8.84999999999549 1.0134327020297287 0.0
9.041666666661694 1.027730180383052 0.0
9.233333333327899 1.0182192783282662 0.0
9.42499999999549 0.9930657982875505 0.0
9.616666666663775 0.973865835675041 0.0
9.808333333331985 0.9771039573920961 0.0
10.0 0.7999999999999998 0.0
10.0 0.6000000000013869 0.0
10.0 0.4000000000016644 0.0
10.0 0.2000000000008322 0.0
9.799999999999999 -0.023542333040350895 0.0
9.6 -0.025229225718678486 0.0
9.399999999999999 -0.0034946572729314894 0.0
9.2 0.021484163706468662 0.0
8.999999999999998 0.026518238436213735 0.0
8.799999999999997 0.00693420171306165 0.0
8.599999999999998 -0.019087176276918225 0.0
8.399999999999997 -0.027389042692382216 0.0
8.199999999999998 -0.010264389649885896 0.0
7.999999999999997 0.01638917267535439 0.0
7.799999999999997 0.027827905383870845 0.0
7.599999999999998 0.013432702030282273 0.0
7.399999999999997 -0.013432702030283038 0.0
7.199999999999998 -0.02782790538387089 0.0
6.999999999999997 -0.016389172675353683 0.0
6.799999999999997 0.01026438964988671 0.0
6.599999999999998 0.02738904269238239 0.0
6.399999999999997 0.01908717627691759 0.0
6.199999999999998 -0.006934201713062306 0.0
5.999999999999997 -0.026518238436213978 0.0
5.799999999999998 -0.02148416370646829 0.0
5.599999999999998 0.0034946572729319626 0.0
5.399999999999999 0.02522922571867861 0.0
5.199999999999998 0.023542333040350638 0.0
4.999999999999999 -2.254374938213139e-16 0.0
4.799999999999999 -0.023542333040350822 0.0
4.599999999999999 -0.02522922571867846 0.0
4.399999999999999 -0.003494657272931417 0.0
4.199999999999999 0.021484163706468575 0.0
3.999999999999999 0.02651823843621381 0.0
3.799999999999999 0.006934201713061964 0.0
3.599999999999999 -0.019087176276918066 0.0
3.399999999999998 -0.02738904269238228 0.0
3.199999999999998 -0.010264389649885922 0.0
2.999999999999999 0.01638917267535417 0.0
2.799999999999998 0.027827905383870855 0.0
2.599999999999998 0.01343270203028225 0.0
2.399999999999999 -0.013432702030282663 0.0
2.199999999999999 -0.02782790538387088 0.0
1.999999999999998 -0.016389172675353787 0.0
1.799999999999999 0.010264389649886407 0.0
1.6 0.027389042692382327 0.0
1.4 0.01908717627691799 0.0
1.199999999999999 -0.0069342017130622526 0.0
0.9999999999999982 -0.026518238436213953 0.0
0.7999999999999989 -0.021484163706468412 0.0
0.6000000000000014 0.0034946572729314686 0.0
0.3999999999999986 0.02522922571867863 0.0
0.1999999999999993 0.02354233304035068 0.0
0.0 0.1999999999995579 0.0
0.0 0.3999999999989749 0.0
0.0 0.5999999999989468 0.0
0.0 0.7999999999994734 0.0
0.6622181659730109 0.5397948425826753 0.0
9.337781834023701 0.5401797446406205 0.0
8.745809560884707 0.5562958818830237 0.0
1.2541904391118937 0.556127702950208 0.0
8.170526994904433 0.5559802785089791 0.0
1.8294729906799783 0.5564634389434476 0.0
2.4220038325152635 0.5744787118852527 0.0
7.577988123653828 0.5759406148866348 0.0
3.020019323124899 0.5771069295083417 0.0
6.9796326539929 0.5751044441941183 0.0
3.616699365465003 0.5748674134917874 0.0
6.378496872416663 0.5739609350136965 0.0
4.217645136165885 0.5737388786593439 0.0
5.800649456650578 0.5169934002739205 0.0
4.795508558448168 0.5159040213232838 0.0
5.298083768987146 0.5150498461618108 0.0
9.674656982364604 0.6945636466114059 0.0
0.3253430176331155 0.700834067047576 0.0
4.521981602845957 0.32349246929463416 0.0
3.907267050768537 0.3538154901473029 0.0
6.075316701581078 0.32397038944056833 0.0
3.30863272404037 0.351088518833817 0.0
6.690023730772104 0.3540203111995042 0.0
7.886540492402475 0.35193037897325097 0.0
2.113458449995174 0.34766236620384267 0.0
2.7110072911478063 0.3550544010129563 0.0
7.288909389421759 0.350901792064194 0.0
9.037314198600422 0.6676338696861418 0.0
0.9626858013949724 0.6625819731847667 0.0
1.526081309734197 0.35002209784714794 0.0
8.473918689767434 0.3457631983305384 0.0
8.464161003456535 0.6659246849049232 0.0
1.5358389965409112 0.6708929391218637 0.0
0.9791970342890479 0.3549881681418317 0.0
9.020802965708405 0.3595039745165569 0.0
4.518424692643987 0.6756324122569196 0.0
3.910611115277995 0.6833383038847073 0.0
6.077309908903626 0.6761219413789757 0.0
2.111716452153039 0.6721996260701715 0.0
7.888283328734317 0.6773912476307419 0.0
3.3136066119615526 0.6793071788110315 0.0
6.68530030045539 0.683731109515176 0.0
2.7172434158629946 0.6842147211573579 0.0
7.2827144417150755 0.6790506340245684 0.0
0.3355649673821923 0.3040931905875671 0.0
9.664435032616758 0.29840597718160344 0.0
5.583304981143267 0.31553000817984206 0.0
5.014038738987786 0.31459174256449607 0.0
5.51109215580445 0.6901747796069708 0.0
5.084510157446168 0.6892432962380743 0.0
0.6646440317366339 0.7301694066261498 0.0
9.335355968258888 0.7314936676826684 0.0
8.750880693514725 0.732046474360958 0.0
1.2491193064810584 0.7318853193396387 0.0
8.674367755823642 0.26538275251764926 0.0
1.3256322441746982 0.2674615645448292 0.0
0.6829669288771794 0.23147901549620795 0.0
9.31703307112136 0.2339388165156067 0.0
8.175479445479395 0.7319175411410361 0.0
1.8245205532385846 0.7334757057244965 0.0
8.08860796648601 0.26516454408894424 0.0
1.9113919088314564 0.263865719448329 0.0
7.492749349365185 0.26714160643317963 0.0
2.5072289548836943 0.26763761183154805 0.0
6.894152530530508 0.26731649116678124 0.0
3.1053336927814974 0.26785062041638563 0.0
6.292788605962125 0.2587946212390304 0.0
3.70370505690545 0.2669211732790704 0.0
2.417712537008185 0.7952759952565912 0.0
7.582284824614875 0.8020329289894524 0.0
3.0156539471911854 0.8038622003675943 0.0
6.984181499057948 0.7947784023005405 0.0
3.6115989731442104 0.7937131932372898 0.0
6.385720823485287 0.804271735824854 0.0
4.2099325855297876 0.8049109877368328 0.0
5.796437077831982 0.8306910656488586 0.0
4.799028536366872 0.8292265482093976 0.0
5.29921603462055 0.19177544831188817 0.0
4.304975601349613 0.2588844480210817 0.0
4.738156868602631 0.2238407760355498 0.0
5.85981833066802 0.22487207393325598 0.0
5.297796707512957 0.7176620063908062 0.0
0.19699060747397976 0.5012484596121793 0.0
9.803009392525002 0.49928992924736526 0.0
9.484910548480114 0.15509894091584397 0.0
0.5150894515190736 0.16518370747493746 0.0
9.565207852361969 0.5071328403017767 0.0
0.4347921476358276 0.5091767404250842 0.0
9.507032063149481 0.827778501198722 0.0
0.4929679368464641 0.8397716117446766 0.0
9.822385139902778 0.8199008745791118 0.0
0.1776148600958075 0.8331054831745555 0.0
7.695658704343054 0.18802040151368898 0.0
2.3043373358671495 0.17401941373838306 0.0
8.878007478929508 0.1913945235470742 0.0
1.1219925210691875 0.1804942990110035 0.0
7.096932061169101 0.17410532684844948 0.0
2.902914190958495 0.189241522356205 0.0
6.497162796380379 0.18722327461693505 0.0
3.5016252081800254 0.17369986440086796 0.0
1.7091778975703993 0.18596151744295794 0.0
8.29082209430007 0.173296167813505 0.0
4.10129928103646 0.18742712122547428 0.0
8.580627885783555 0.8154956462955056 0.0
1.4193721142128926 0.8291344846864666 0.0
8.924320417974561 0.8284974505299924 0.0
1.0756795820201057 0.8143901135589485 0.0
0.8427857701851724 0.8129877061045294 0.0
9.157214229809188 0.8289156762851009 0.0
8.34951150608208 0.8142044279097739 0.0
1.6504884939160271 0.8303640425459334 0.0
5.59520009724881 0.496913412135432 0.0
5.0010728920141405 0.49601609205435027 0.0
7.793296908789902 0.8383623565570648 0.0
2.206702812835561 0.8192357468045266 0.0
7.785151501083858 0.5320596242600719 0.0
2.214846917372983 0.5297206145246579 0.0
2.810430270820181 0.8410826410439141 0.0
7.1895285806178695 0.8213958658543367 0.0
3.4063007971522454 0.821490646663438 0.0
6.592732452549908 0.8408126355635527 0.0
4.002902972010749 0.840380817132414 0.0
5.98880570338415 0.8273676470368835 0.0
4.606698825322249 0.8273185702672697 0.0
7.185502591918592 0.5330588623139102 0.0
2.8143717579174634 0.5355045019501671 0.0
6.586657792377459 0.5342519811785855 0.0
3.4111171121361026 0.5330740134954005 0.0
5.985817781052478 0.5176457831624203 0.0
4.009685383360894 0.5340417219079979 0.0
4.610384669186103 0.5167560220789026 0.0
8.555348070037669 0.526635087115938 0.0
[...]
POINT_DATA 386
VECTORS vector double
1.0 0.0 0.0
0.0 0.0 0.0
0.0 0.0 0.0
0.0 0.0 0.0
0.0 0.0 0.0
1.0 0.0 0.0
0.0 0.0 0.0
0.0 0.0 0.0
0.0 0.0 0.0
0.0 0.0 0.0
0.0 0.0 0.0
0.0 0.0 0.0
0.0 0.0 0.0
0.0 0.0 0.0
0.0 0.0 0.0
0.0 0.0 0.0
0.0 0.0 0.0
0.0 0.0 0.0
0.0 0.0 0.0
0.0 0.0 0.0
0.0 0.0 0.0
0.0 0.0 0.0
0.0 0.0 0.0
0.0 0.0 0.0
0.0 0.0 0.0
0.0 0.0 0.0
0.0 0.0 0.0
0.0 0.0 0.0
0.0 0.0 0.0
0.0 0.0 0.0
0.0 0.0 0.0
0.0 0.0 0.0
0.0 0.0 0.0
0.0 0.0 0.0
0.0 0.0 0.0
0.0 0.0 0.0
0.0 0.0 0.0
0.0 0.0 0.0
0.0 0.0 0.0
0.0 0.0 0.0
0.0 0.0 0.0
0.0 0.0 0.0
0.0 0.0 0.0
0.0 0.0 0.0
0.0 0.0 0.0
0.0 0.0 0.0
0.0 0.0 0.0
0.0 0.0 0.0
0.0 0.0 0.0
0.0 0.0 0.0
0.0 0.0 0.0
0.0 0.0 0.0
0.0 0.0 0.0
0.0 0.0 0.0
1.05054171146 0.0747847117472 0.0
1.15169439386 -0.0167906697094 0.0
1.12276988718 0.00276067045692 0.0
1.13200947288 -0.0598222697797 0.0
0.0 0.0 0.0
0.0 0.0 0.0
0.0 0.0 0.0
0.0 0.0 0.0
0.0 0.0 0.0
0.0 0.0 0.0
0.0 0.0 0.0
0.0 0.0 0.0
0.0 0.0 0.0
0.0 0.0 0.0
0.0 0.0 0.0
0.0 0.0 0.0
0.0 0.0 0.0
0.0 0.0 0.0
0.0 0.0 0.0
0.0 0.0 0.0
0.0 0.0 0.0
0.0 0.0 0.0
0.0 0.0 0.0
0.0 0.0 0.0
0.0 0.0 0.0
0.0 0.0 0.0
0.0 0.0 0.0
0.0 0.0 0.0
0.0 0.0 0.0
0.0 0.0 0.0
0.0 0.0 0.0
0.0 0.0 0.0
0.0 0.0 0.0
0.0 0.0 0.0
0.0 0.0 0.0
0.0 0.0 0.0
0.0 0.0 0.0
0.0 0.0 0.0
0.0 0.0 0.0
0.0 0.0 0.0
0.0 0.0 0.0
0.0 0.0 0.0
0.0 0.0 0.0
0.0 0.0 0.0
0.0 0.0 0.0
0.0 0.0 0.0
0.0 0.0 0.0
0.0 0.0 0.0
0.0 0.0 0.0
0.0 0.0 0.0
0.0 0.0 0.0
0.0 0.0 0.0
0.0 0.0 0.0
1.0 0.0 0.0
1.0 0.0 0.0
1.0 0.0 0.0
1.0 0.0 0.0
1.12585327413 -0.016639257206 0.0
1.11841826828 -0.0219830845768 0.0
1.11921094257 0.0130630984525 0.0
1.11210412792 0.0197833426399 0.0
1.12085178235 -0.0269446933024 0.0
1.11555298595 -0.0117103872128 0.0
1.09093480839 0.0237068889158 0.0
1.09125217843 0.00739861307803 0.0
1.09381969751 -0.00837210060359 0.0
1.10549715309 -0.00695419879419 0.0
1.09364225304 0.0143369783086 0.0
1.07522987294 0.0192716898167 0.0
1.09131149746 -0.00823221937743 0.0
1.0967203819 0.0188832976762 0.0
1.10565809139 0.00185339668442 0.0
1.13224918781 -0.0213352647227 0.0
1.13407126347 -0.0079624900252 0.0
1.08551020438 -0.0775760019543 0.0
1.08354576997 -0.0111378469759 0.0
1.09821456379 0.0186111971554 0.0
1.10507693073 0.0312256928096 0.0
1.09331046567 -0.00925450427202 0.0
1.08523980265 -0.0227815810117 0.0
1.09890460118 -0.0302927826657 0.0
1.10204038712 0.00103810461513 0.0
1.10045823324 0.0164650384516 0.0
1.09473941285 0.00360841872375 0.0
1.10768637968 0.00137703176915 0.0
1.10727041063 0.0171670398667 0.0
1.12063045106 0.0110077359414 0.0
1.11063033945 -0.00542118952788 0.0
1.11331182349 0.00938829652523 0.0
1.1059189711 0.00851131378422 0.0
1.10342527625 -0.000831056447707 0.0
1.1032173042 -0.0121115489343 0.0
1.10420719171 -0.0144780937367 0.0
1.08530563853 0.0111585514836 0.0
1.06710792642 0.0443506260246 0.0
1.10571431493 0.0216111837851 0.0
1.09582626809 -0.036070985174 0.0
1.10116406667 -0.00724259189432 0.0
1.08745389819 -0.0238328238492 0.0
1.08407983473 0.00654995946742 0.0
1.10329266705 0.016008438907 0.0
1.09933736378 0.0299351691721 0.0
1.11827542921 -0.0220315133583 0.0
1.05318855548 -0.0164841615354 0.0
1.10114948669 -0.0101135890173 0.0
1.09788415998 0.010986718932 0.0
1.04355489842 -0.0431533155787 0.0
1.10807590703 -0.0176547067819 0.0
1.09984865716 -0.0413999886475 0.0
1.09294540578 0.0114704206298 0.0
1.0882812171 0.0163324251569 0.0
1.07830763368 0.0290143647512 0.0
1.11020184812 0.0304891971837 0.0
1.08255460229 -0.0290253825515 0.0
1.09848732432 -0.0098219272042 0.0
1.10171856593 -0.0385315369549 0.0
1.09000291517 -0.030892196782 0.0
1.08752244729 -0.017391068672 0.0
1.09498059545 -0.0247799261174 0.0
1.07322133788 0.0316286539258 0.0
1.09488067319 0.0312092800703 0.0
1.07327953276 -0.00780289086574 0.0
1.08829974038 -0.0282566877298 0.0
1.09774806061 0.0304735930118 0.0
1.08735049136 0.028191507749 0.0
1.25999974092 0.0681808012107 0.0
1.21163314108 0.0580407422179 0.0
1.18347909737 -0.0609538403927 0.0
1.27701309277 -0.063003551145 0.0
1.28700086743 0.0557982464088 0.0
1.2004051222 0.0423627054958 0.0
1.16876102119 -0.0501786141101 0.0
1.20143251778 0.00353253175678 0.0
1.26305579517 0.0441314369014 0.0
1.27208783805 -0.0311141221054 0.0
1.10511853005 -0.0290383105327 0.0
1.03724346062 0.0105414854431 0.0
1.08247023824 0.0774229189205 0.0
1.0774871834 -0.0552904183158 0.0
1.03376441534 -0.00928829343679 0.0
1.13442363138 -0.00972907527728 0.0
1.06756292522 -0.0500436115885 0.0
1.17139818784 -0.0452149777876 0.0
1.13563359561 -0.0240884917373 0.0
1.10487635128 -0.0224759838721 0.0
1.16024132563 -0.067007577891 0.0
1.06931668082 -0.0671802007558 0.0
1.07745733233 -0.0472145711894 0.0
1.08344689026 -0.114077624875 0.0
1.17550404465 0.0187552461941 0.0
1.07376247461 0.0379457237565 0.0
1.19650600491 0.0255212549765 0.0
1.1037115695 0.0581216068509 0.0
1.04727431876 -0.0218737797569 0.0
1.1968524554 -0.0236247157303 0.0
1.18432432903 0.00960931321482 0.0
1.06240783189 0.0222571331747 0.0
1.19979768054 -0.0377659383837 0.0
1.06967797784 -0.0396544609323 0.0
1.19822618345 -0.00709117732276 0.0
1.23471059032 0.0376569706831 0.0
1.08594594123 0.0577753159794 0.0
1.0861910961 0.0527453039702 0.0
1.2283905748 0.0393668430867 0.0
1.2228527411 -0.00310037531018 0.0
1.07522418879 -0.0418859355975 0.0
1.24385885861 -0.00993452984424 0.0
1.07835404748 -0.0355258846372 0.0
1.11016593019 -0.017255367463 0.0
1.11497419892 0.0054713424355 0.0
1.11651653499 -0.0313362619238 0.0
1.28886573816 0.0491729880556 0.0
1.10612351617 -0.0131527000745 0.0
1.11538877208 0.0190967011803 0.0
1.10904821703 0.0188499092724 0.0
1.31974596991 -0.00438381972592 0.0
1.3104247031 0.00853509995379 0.0
1.13399330854 -0.0472543608897 0.0
1.11548269826 0.0413196535816 0.0
1.27716171669 0.0618541104254 0.0
1.27468689361 -0.0252508904878 0.0
1.11374822652 -0.00111663960506 0.0
1.10218348052 -0.00205340269043 0.0
1.09596845383 -0.0100910837139 0.0
1.10706905865 0.00240256586662 0.0
1.10323673047 0.0440412141731 0.0
1.10152517235 0.00282218994965 0.0
1.10554633265 -0.0116879546911 0.0
1.12370091743 0.00886070571414 0.0
1.11572982719 0.0105131688549 0.0
1.11999754144 0.0132982031322 0.0
1.12703077499 -0.00131000513317 0.0
1.12052455257 0.00199411973614 0.0
1.11931053242 -0.0101472943 0.0
1.10412657921 -0.0260528949697 0.0
1.11657528749 -0.00691363907264 0.0
1.1262018432 -0.00889399343926 0.0
1.11428674398 -0.00525504744206 0.0
1.10698380639 -0.0278265928094 0.0
1.1026511909 0.0135701732176 0.0
1.10210509374 0.0418714741795 0.0
1.10288339707 -0.0211145587962 0.0
1.10515809909 -0.0166883759544 0.0
1.10158849724 0.0135140187268 0.0
1.11032465579 0.0216879404866 0.0
1.21257902412 -0.0994315920158 0.0
1.17966120604 0.0564132043395 0.0
1.25812307629 0.111738987771 0.0
1.21596309944 -0.0284214785911 0.0
1.12892965372 -0.0894428498159 0.0
1.24344520186 -0.0873751055438 0.0
1.16803428671 -0.0586627348187 0.0
1.15226250966 0.0425822206428 0.0
1.27935180982 0.0950419809777 0.0
1.12710022481 0.102222889159 0.0
1.21700253833 -0.0878807719386 0.0
1.1545247489 0.187519828422 0.0
1.12749920448 0.00321082002339 0.0
1.23488988897 -0.00883305426461 0.0
1.07141448848 -0.0432071609012 0.0
1.14581124728 -0.0322439123103 0.0
1.14360318181 -0.0387552129244 0.0
1.1921243232 0.00734139398537 0.0
1.01156003566 0.0400423037956 0.0
1.16956803027 -0.032865748194 0.0
1.0266010575 -0.0597425110886 0.0
1.00236982208 0.0594587528772 0.0
1.0272386185 -0.0885658483556 0.0
1.00304804061 0.0561886465884 0.0
1.16484436357 0.0251990547285 0.0
1.15275552838 -0.040282697351 0.0
1.03173721555 -0.0748618732691 0.0
1.12352977753 0.0112392437312 0.0
1.10392627961 0.0136445146083 0.0
1.14557433958 0.0377559539818 0.0
1.11292244654 -0.00825093373691 0.0
1.11876555092 -0.0142729466377 0.0
1.19119660447 0.0304416456474 0.0
1.11600680116 0.100227676764 0.0
1.09173348834 0.0151910536453 0.0
1.10942358691 0.00601976819759 0.0
1.07246677462 -0.039559400587 0.0
1.26981088194 -0.0862905185414 0.0
1.10489488548 -0.0138353928386 0.0
1.09671588997 0.00205057276323 0.0
1.10025042307 0.0113695892868 0.0
1.08575437445 0.00627565889698 0.0
1.17134641878 0.0726565013994 0.0
1.10491310453 -0.0101436065924 0.0
1.06436805692 0.0250525307312 0.0
1.10108173865 0.00146901748495 0.0
1.12409478679 0.0175491553915 0.0
1.1168204478 0.00368374624252 0.0
1.09602156571 0.000195295085239 0.0
1.07279244842 -0.0107781771476 0.0
1.08772266588 0.0388826798219 0.0
1.06960638679 -0.00218463036391 0.0
1.07968984256 0.0132282417681 0.0
1.06241307534 -0.00293902853251 0.0
1.08603421996 -0.00751962692147 0.0
1.07362465905 -0.0151512392793 0.0
1.10363289339 0.0145083421845 0.0
1.11909502439 -0.0026389697344 0.0
1.11807305209 0.0236384471266 0.0
1.09209110976 -0.0137471518407 0.0
1.13936642582 -0.0145083580387 0.0
1.12391166803 -0.0306123151582 0.0
1.10643846762 -0.0038754095289 0.0
1.14532687755 -0.0236963378558 0.0
1.14010360091 -0.00789695674547 0.0
1.10565871809 -0.0133262446993 0.0
1.07745777626 0.0262257973415 0.0
1.05046229823 0.0250788525393 0.0
1.09538933162 -0.00717543284957 0.0
1.08258270603 -0.0345829897911 0.0
1.13257464977 -0.010984479148 0.0
1.13906041302 -0.00607891687684 0.0
1.07322422986 0.0259326876209 0.0
1.08265819135 0.0080962525872 0.0
1.07667654634 -0.031735257619 0.0
1.0984886974 -0.0243853740557 0.0
1.06307657092 -0.152081450263 0.0
1.11946665905 0.0183118015964 0.0
1.08842576497 0.00811597625411 0.0
1.12760944936 -0.0298014926841 0.0
1.13466766406 -0.0101405269623 0.0
1.10858000184 -0.00507497199904 0.0
1.04295812178 0.0662503143517 0.0
0.93756665444 -0.0161224215126 0.0
1.24059935527 0.0519227852563 0.0
1.04163020744 -0.0743173385104 0.0
1.1728757583 -0.0214270318394 0.0
1.11521949837 -0.0179451393477 0.0
1.11405734623 -0.00617997301437 0.0
1.11954577564 0.0105924065359 0.0
1.12248061411 0.0196480989159 0.0
1.08157677916 0.109332160213 0.0
1.1544390848 0.020488301459 0.0
1.05614337538 -0.0878201640531 0.0
1.06242029402 -0.0883655385357 0.0
1.11429017664 -0.026025333312 0.0
1.11379094124 -0.0114928358447 0.0
1.03894355949 -0.0356215509114 0.0
0.989671550937 0.105023584651 0.0
1.01453979724 0.0318027451623 0.0
1.09954481114 0.0252205753508 0.0
1.10184108253 0.0160406662241 0.0
1.10317460825 -0.000644800779042 0.0
1.09783598978 0.0375461810069 0.0
1.10035409297 -0.0177533153366 0.0
1.09824780995 -0.016989366558 0.0
1.09498982471 0.022908825916 0.0
1.09938756974 0.0305644334415 0.0
1.03509690668 -0.0559647526022 0.0
0.998911704844 -0.082716293353 0.0
1.10533294468 -0.0225419426981 0.0
1.01779181465 0.109137868691 0.0
1.00005040911 0.0596600188119 0.0
1.01788313126 -0.0531152112676 0.0
1.03533573733 -0.0900472583996 0.0
1.04525156337 -0.0553209920424 0.0
1.01702605672 -0.105523227419 0.0
1.07201480077 0.0701512293548 0.0
1.07239697584 0.072012751632 0.0
1.07255271661 0.118692876858 0.0
1.00371056444 0.0507453550323 0.0
1.10408493558 -0.0927775435402 0.0
1.04008078458 -0.0904579090841 0.0
1.00179565673 0.103894747341 0.0
1.10108583799 0.0445790383115 0.0
0.98249217553 -0.0942962788436 0.0
1.06418242002 -0.0441743223583 0.0

SCALARS scalar1 double
LOOKUP_TABLE default
3.83692146282
8.22520805355
11.0486905484
9.77725791371
-8.51545364898
-2.37071448274
8.82704302854
8.61909764357
8.87909973798
10.478718695
9.8613909558
10.4789483235
8.67180025361
7.03161655258
10.0052698794
10.5020439216
9.68428067908
8.40853847129
8.13016866682
7.31850476088
8.4027311133
11.1845610057
10.0238987785
8.83945798546
8.4118192923
7.19947330828
7.99053392895
10.7143805819
11.4499971562
10.3946108727
10.1385839877
5.30180215112
9.24685111577
9.30459348199
11.3100440705
11.2915051239
8.51204296474
7.4462900495
8.36737199309
8.59673765855
9.95164778259
11.4913089599
8.77698539466
7.44359130477
7.72766076032
9.21449645185
9.94501948521
10.5254879794
8.59319300904
7.01067529154
8.113253902
10.0617243231
11.5369300911
12.1851282775
0.422474376589
-0.0667633409191
0.00815439603383
-0.0512037596538
-8.54296306559
-8.18901772327
-9.76502792153
-10.9789570827
-9.66836168367
-9.44402814251
-8.96516147179
-7.28173784698
-8.47975737766
-11.7586748622
-10.2356777492
-10.0285370524
-9.13286806421
-7.13318588235
-7.94961168676
-10.9912731107
-10.2785854095
-10.5601228454
-9.7791351344
-9.52885316674
-6.83103268112
-9.80005866586
-10.5072793878
-9.9081188173
-8.83618270321
-6.41887933435
-9.83681649028
-10.4191282412
-10.8903658405
-10.2144891936
-10.7730415634
-7.87991038251
-7.33282312478
-9.65202072982
-10.4263932673
-10.2349481309
-11.4004701148
-8.24232915154
-7.35536629199
-9.3031285499
-10.0995394375
-10.395537002
-12.3350511061
-8.56768562796
-7.1256745877
-7.87508059262
-10.3090731461
-12.4428425271
-13.4654928753
2.67623211898
-0.051420978033
-0.111453092181
-2.13994059715
0.0226223428486
-0.0026171953731
0.0355575181931
0.0152351804355
0.0354005502758
0.0155560113934
-0.0328681524028
-0.0285717158788
-0.0393082205092
-0.00949249111591
-0.0234682181101
-0.0228210255672
-0.0400058626395
-0.000479093926425
0.0356262841853
-0.0457964304699
-0.165839765804
-0.26914467719
0.266869458843
0.144517027972
0.260823571119
0.201069735596
0.104263910939
0.105239842482
0.194373243998
0.144446276632
0.128883450149
-0.168208899816
-0.115380097982
0.144150322563
0.129695499969
-0.130696816834
-0.174391513944
0.109375979941
0.10276681007
-0.307382293169
-0.341388678252
-0.149267172326
-0.13683929676
-0.355692273542
-0.339273546398
-0.354558338261
-0.339130575725
-0.349002700294
0.31105303073
0.132519268137
0.401487008781
0.00951340620423
-0.0998312529722
-0.234205440183
-0.0360146195149
-0.253220991755
-0.349269751388
-0.344138973188
0.0851680879581
0.325221557113
0.131345025707
0.341103161979
-0.235533200417
-0.250551801005
0.225934807424
0.328788020473
0.0849498775001
0.318819735802
0.219325825812
0.327811534277
0.141867897049
0.32110246949
-0.726598277703
-0.620675550759
-0.285662791448
-0.453320273471
-0.72696577564
-0.850115346464
-0.295504652793
0.341038063748
-0.338596149482
0.388147208062
0.310950682252
0.0832224494099
0.543323243494
-0.0610989759187
-0.0189108018739
-0.010090374129
-1.32008536582
-0.795456349269
-0.0191459784198
-0.00370863262852
0.880708339172
1.51897956738
0.893250952055
-0.226378046405
-0.453037970203
-0.232720725264
-0.426913992563
-0.0701593646255
-0.735893575393
0.0153348215145
-0.280455747624
-0.222158798197
-0.0162254925968
-0.697248092403
0.0065517881019
-0.159458091684
0.9459510673
0.951628965434
-0.177339075833
0.552665370496
0.464514232232
0.572849771031
0.476199779289
-0.095095534821
0.0212905125836
0.912277743435
-0.119517063492
0.00765787279462
-0.000269947221749
0.764419083945
0.294121217914
-0.0752159815516
0.946817874093
0.69117336086
-0.457114371337
0.0573790810019
-0.00133433957008
0.0140324152456
0.00180572446409
0.00387179091555
0.0422707969202
0.0144814346222
-0.00400014733902
0.0174357188776
0.00772886374908
-0.0102078426747
-0.0148291703
0.00493621770827
-0.00470843474459
-0.00861578468773
4.57590606307e-05
-0.00535921817874
-0.00598572915859
0.0235495917371
0.00942340417205
0.0742598723091
0.00373774227563
0.0231105930672
0.0093357541127
0.0313973630071
0.694000345941
0.785508641303
-0.684547691463
0.689863471332
0.50586959098
0.583688235945
0.632033290338
0.882352613702
-0.133772005969
-1.50174865103
0.587377430748
0.0433433713945
-1.38861921839
0.232189104467
-0.899229579201
-0.123562206766
-0.00615438262828
-1.23989118814
-1.47929047329
-0.656146208694
-1.57395142638
-2.28151355169
-1.81730973889
-1.45166112044
-1.23834533145
-0.609091563321
-1.48547239997
-0.0251073310493
0.0492006731535
-1.28429621967
0.016494729302
0.0495118062992
-0.573050884253
0.833443165623
0.0828863490341
-0.007110920445
1.83794110741
0.691105372677
0.0537551708092
0.0259230428703
0.0125239402482
0.0878697196752
-0.0877078073017
0.0605383686385
0.272380345174
0.0777250842825
-0.0924768116009
-0.154455363337
-0.162642277228
-0.251698721468
-0.118689918294
-0.524561465547
-0.230949839231
-0.588837335322
-0.262749227538
-0.242981238241
-0.463728229915
-0.155964118395
-0.0798424819746
-0.456117226391
-0.115988009572
-0.149379488289
-0.101382882013
-0.105500736824
-0.0549412809273
-0.0897560257288
-0.532009836355
-0.274437851322
-0.462856004121
-0.244421335003
0.0531303242094
0.0465885004103
-0.542136158913
-0.308001514884
0.042131736681
0.0828192783016
3.11050451888
-0.111130896335
-0.116089469508
-0.00780892473909
-0.0929319580935
0.121748391449
0.657757125947
-2.83270763722
-2.19621663859
-0.822980454936
-0.162112886766
0.0482686267201
0.00879336361091
-0.0462258618664
-0.057675957855
-3.03856051305
2.035438627
3.11462856271
-1.32393268678
-0.0527458837623
-0.054771152397
-3.47448223451
-3.09454956388
-2.58597628155
-0.0232722555468
-0.0378560591888
0.00818734112528
0.0970295082271
-0.0323134958466
-0.0503569242588
-0.0226075248354
0.0134014350924
-3.17441453518
-2.56496168496
-0.0374577846536
-3.05249121921
-2.76696138016
-3.27517627775
-2.51865830634
2.7080415964
2.89993432158
2.73736014817
2.71667999634
-3.03373816512
-2.74442498886
2.65629745624
2.79060006776
5.6642294522
1.48850964759
-3.31710211133
-3.45431160776

SCALARS scalar2 double
LOOKUP_TABLE default
3.83692146282
8.22520805355
11.0486905484
9.77725791371
-8.51545364898
-2.37071448274
8.82704302854
8.61909764357
8.87909973798
10.478718695
9.8613909558
10.4789483235
8.67180025361
7.03161655258
10.0052698794
10.5020439216
9.68428067908
8.40853847129
8.13016866682
7.31850476088
8.4027311133
11.1845610057
10.0238987785
8.83945798546
8.4118192923
7.19947330828
7.99053392895
10.7143805819
11.4499971562
10.3946108727
10.1385839877
5.30180215112
9.24685111577
9.30459348199
11.3100440705
11.2915051239
8.51204296474
7.4462900495
8.36737199309
8.59673765855
9.95164778259
11.4913089599
8.77698539466
7.44359130477
7.72766076032
9.21449645185
9.94501948521
10.5254879794
8.59319300904
7.01067529154
8.113253902
10.0617243231
11.5369300911
12.1851282775
0.422474376589
-0.0667633409191
0.00815439603383
-0.0512037596538
-8.54296306559
-8.18901772327
-9.76502792153
-10.9789570827
-9.66836168367
-9.44402814251
-8.96516147179
-7.28173784698
-8.47975737766
-11.7586748622
-10.2356777492
-10.0285370524
-9.13286806421
-7.13318588235
-7.94961168676
-10.9912731107
-10.2785854095
-10.5601228454
-9.7791351344
-9.52885316674
-6.83103268112
-9.80005866586
-10.5072793878
-9.9081188173
-8.83618270321
-6.41887933435
-9.83681649028
-10.4191282412
-10.8903658405
-10.2144891936
-10.7730415634
-7.87991038251
-7.33282312478
-9.65202072982
-10.4263932673
-10.2349481309
-11.4004701148
-8.24232915154
-7.35536629199
-9.3031285499
-10.0995394375
-10.395537002
-12.3350511061
-8.56768562796
-7.1256745877
-7.87508059262
-10.3090731461
-12.4428425271
-13.4654928753
2.67623211898
-0.051420978033
-0.111453092181
-2.13994059715
0.0226223428486
-0.0026171953731
0.0355575181931
0.0152351804355
0.0354005502758
0.0155560113934
-0.0328681524028
-0.0285717158788
-0.0393082205092
-0.00949249111591
-0.0234682181101
-0.0228210255672
-0.0400058626395
-0.000479093926425
0.0356262841853
-0.0457964304699
-0.165839765804
-0.26914467719
0.266869458843
0.144517027972
0.260823571119
0.201069735596
0.104263910939
0.105239842482
0.194373243998
0.144446276632
0.128883450149
-0.168208899816
-0.115380097982
0.144150322563
0.129695499969
-0.130696816834
-0.174391513944
0.109375979941
0.10276681007
-0.307382293169
-0.341388678252
-0.149267172326
-0.13683929676
-0.355692273542
-0.339273546398
-0.354558338261
-0.339130575725
-0.349002700294
0.31105303073
0.132519268137
0.401487008781
0.00951340620423
-0.0998312529722
-0.234205440183
-0.0360146195149
-0.253220991755
-0.349269751388
-0.344138973188
0.0851680879581
0.325221557113
0.131345025707
0.341103161979
-0.235533200417
-0.250551801005
0.225934807424
0.328788020473
0.0849498775001
0.318819735802
0.219325825812
0.327811534277
0.141867897049
0.32110246949
-0.726598277703
-0.620675550759
-0.285662791448
-0.453320273471
-0.72696577564
-0.850115346464
-0.295504652793
0.341038063748
-0.338596149482
0.388147208062
0.310950682252
0.0832224494099
0.543323243494
-0.0610989759187
-0.0189108018739
-0.010090374129
-1.32008536582
-0.795456349269
-0.0191459784198
-0.00370863262852