# vtk DataFile Version 2.0
2D Simulation Python
ASCII
DATASET UNSTRUCTURED_GRID
FIELD FieldData 1
NODES 1 2 int
386 659

POINTS 386 double
0.0 1.0 0.0
1.725 1.0156644407472744 0.0
8.275 0.9843355592527254 0.0
10.0 1.0 0.0
10.0 -4.4837603268942123e-17 0.0
0.0 0.0 0.0
0.1916666666663293 1.0187902965621054 0.0
0.3833333333324708 1.0214477543776757 0.0
0.574999999998553 1.0056907522773988 0.0
0.7666666666645966 0.9850478246924408 0.0
0.9583333333312576 0.9772424290936911 0.0
1.149999999998384 0.9889760663400632 0.0
1.341666666665662 1.010174553888408 0.0
1.533333333332819 1.0226374455583853 0.0
1.92348484848444 0.9944782118880603 0.0
2.121969696968978 0.978347273037696 0.0
2.320454545453434 0.9820397703746698 0.0
2.518939393937826 1.002175160401658 0.0
2.717424242422235 1.0203191544490777 0.0
2.915909090906411 1.0198606204037286 0.0
3.1143939393908 1.001219353906296 0.0
3.312878787875129 0.9814617483725282 0.0
3.511363636359531 0.9786762244061885 0.0
3.709848484843827 0.9954129761094348 0.0
3.90833333332816 1.0163492254345101 0.0
4.106818181812215 1.0223174835371873 0.0
4.305303030296804 1.0078537096130897 0.0
4.503787878781365 0.9861997322739637 0.0
4.702272727265711 0.9771801324481935 0.0
4.900757575750005 0.9890525056752171 0.0
5.099242424235156 1.010947494323284 0.0
5.297727272720327 1.0228198675516875 0.0
5.496212121205663 1.0138002677272264 0.0
5.694696969690998 0.9921462903882281 0.0
5.89318181817668 0.9776825164630948 0.0
6.09166666666213 0.9836507745647086 0.0
6.290151515147423 1.0045870238895793 0.0
6.488636363633031 1.0213237755935016 0.0
6.687121212118713 1.0185382516278871 0.0
6.885606060604342 0.9987806460942623 0.0
7.084090909089381 0.9801393795965118 0.0
7.282575757574369 0.9796808455507425 0.0
7.481060606059355 0.9978248395980188 0.0
7.679545454544343 1.0179602296251715 0.0
7.878030303029329 1.021652726962367 0.0
8.076515151514705 1.0055217881120353 0.0
8.46666666666447 0.9773625544415693 0.0
8.658333333329285 0.9898254461110711 0.0
8.84999999999549 1.0110239336593194 0.0
9.041666666661694 1.0227575709062238 0.0
9.233333333327899 1.0149521753082122 0.0
9.42499999999549 0.9943092477232649 0.0
9.616666666663775 0.9785522456224751 0.0
9.808333333331985 0.9812097034377839 0.0
10.0 0.7999999999999998 0.0
10.0 0.6000000000013869 0.0
10.0 0.4000000000016644 0.0
10.0 0.2000000000008322 0.0
9.799999999999999 -0.01932069341284079 0.0
9.6 -0.020705090456348406 0.0
9.399999999999999 -0.002867991105109999 0.0
9.2 0.017631597492589697 0.0
8.999999999999998 0.021762955854737996 0.0
8.799999999999997 0.0056907522772374625 0.0
8.599999999999998 -0.015664440747274747 0.0
8.399999999999997 -0.022477606438738792 0.0
8.199999999999998 -0.008423766886462581 0.0
7.999999999999997 0.013450246413891961 0.0
7.799999999999997 0.022837771741729504 0.0
7.599999999999998 0.01102393365977375 0.0
7.399999999999997 -0.011023933659774374 0.0
7.199999999999998 -0.022837771741729546 0.0
6.999999999999997 -0.01345024641389139 0.0
6.799999999999997 0.00842376688646324 0.0
6.599999999999998 0.022477606438738945 0.0
6.399999999999997 0.015664440747274227 0.0
6.199999999999998 -0.005690752277237999 0.0
5.999999999999997 -0.021762955854738187 0.0
5.799999999999998 -0.01763159749258939 0.0
5.599999999999998 0.0028679911051103877 0.0
5.399999999999999 0.02070509045634851 0.0
5.199999999999998 0.019320693412840585 0.0
4.999999999999999 -1.8501176983671952e-16 0.0
4.799999999999999 -0.01932069341284074 0.0
4.599999999999999 -0.020705090456348385 0.0
4.399999999999999 -0.0028679911051099397 0.0
4.199999999999999 0.017631597492589624 0.0
3.999999999999999 0.02176295585473806 0.0
3.799999999999999 0.005690752277237718 0.0
3.599999999999999 -0.01566444074727461 0.0
3.399999999999998 -0.022477606438738855 0.0
3.199999999999998 -0.008423766886462595 0.0
2.999999999999999 0.013450246413891786 0.0
2.799999999999998 0.0228377717417295 0.0
2.599999999999998 0.011023933659773728 0.0
2.399999999999999 -0.01102393365977407 0.0
2.199999999999999 -0.022837771741729518 0.0
1.999999999999998 -0.013450246413891472 0.0
1.799999999999999 0.008423766886462992 0.0
1.6 0.02247760643873889 0.0
1.4 0.015664440747274556 0.0
1.199999999999999 -0.005690752277237954 0.0
0.9999999999999982 -0.021762955854738184 0.0
0.7999999999999989 -0.01763159749258949 0.0
0.6000000000000014 0.002867991105109982 0.0
0.3999999999999986 0.020705090456348517 0.0
0.1999999999999993 0.01932069341284061 0.0
0.0 0.1999999999995579 0.0
0.0 0.3999999999989749 0.0
0.0 0.5999999999989468 0.0
0.0 0.7999999999994734 0.0
0.6588707822234371 0.5431469576301603 0.0
9.341129212576366 0.5448890171607838 0.0
8.742649024250563 0.5636483900833477 0.0
1.2573507126677386 0.5631527129230984 0.0
8.165249534957605 0.5660900573027852 0.0
1.8347441679373444 0.5678486197629411 0.0
2.427655326680204 0.588983852094596 0.0
7.5722631057552245 0.5932110459325368 0.0
3.027248577393411 0.597755201360283 0.0
6.972093357025557 0.5904448770141701 0.0
3.6251418088278857 0.5899739136937407 0.0
6.370671732848528 0.5890639355381616 0.0
4.226300409315654 0.5895536791078532 0.0
5.796664474447431 0.5202639991495214 0.0
4.800518947009901 0.519396192913415 0.0
5.298615197671028 0.5264870402586941 0.0
9.677321558760527 0.691463691387787 0.0
0.3226784409682512 0.7080385239745586 0.0
4.528243575012658 0.32782780437907866 0.0
3.9156877472083393 0.37056585962148947 0.0
6.069886314914984 0.32767842128234353 0.0
3.3162820097511347 0.3648401654251523 0.0
6.682395154380704 0.37100836198150855 0.0
7.881319788545857 0.3673827957638186 0.0
2.1186566735616728 0.35628605864412555 0.0
2.7173673169777866 0.37425710735836304 0.0
7.282410213391386 0.36335725870751723 0.0
9.037690874110988 0.6771027384081513 0.0
0.9623090962290034 0.6626158497239854 0.0
1.5305056140194295 0.36156470183259604 0.0
8.469492929789862 0.3506347821830754 0.0
8.45996458713962 0.6686959126716691 0.0
1.5400343221786297 0.6825316370658396 0.0
0.9789442127576834 0.35653115102074423 0.0
9.021055733532837 0.3687161997794403 0.0
4.524926287215779 0.681123631782666 0.0
3.9183330396301836 0.7018068836598133 0.0
6.071596573616741 0.6805480791575461 0.0
2.1160456378357098 0.6790359618075742 0.0
7.883935453753668 0.6935732785859235 0.0
3.3203039875101026 0.6915260064090433 0.0
6.678245223780083 0.702581872185434 0.0
2.7226995299017474 0.7050105356422893 0.0
7.27709774263035 0.6899261970226003 0.0
0.33295811546864146 0.3098973323438219 0.0
9.667041883993198 0.2958197983681217 0.0
5.582005090870124 0.3213494126235905 0.0
5.0161865701682355 0.3199778106545414 0.0
5.5099235607507975 0.698283489526312 0.0
5.086584899118432 0.6971028098806001 0.0
0.6619372890327759 0.7326787309773044 0.0
9.338062708144774 0.7353691341889349 0.0
8.748554598836776 0.7372108031756305 0.0
1.2514452387462458 0.736648670153317 0.0
8.671410056282722 0.2704157520695025 0.0
1.328589518624616 0.2754481244776684 0.0
0.6804165597374777 0.23303835849867832 0.0
9.319583434664745 0.23801261193218898 0.0
8.171763890513274 0.7386503032843663 0.0
1.8282320192329269 0.742163481154513 0.0
8.084080577205336 0.27541731786249823 0.0
1.9159110239044104 0.27197220388136484 0.0
7.4874079898372 0.2795076924735447 0.0
2.5124980358813143 0.2809473589412124 0.0
6.887569899722744 0.28021562581269227 0.0
3.1118045652674375 0.2823360070185406 0.0
6.286929281253705 0.26720700814088805 0.0
3.7110263209456633 0.279418934897139 0.0
2.420795318991849 0.8039925844569364 0.0
7.579158931320552 0.8121506632220286 0.0
3.019683034151916 0.816141271841688 0.0
6.979928388172203 0.8041473663354329 0.0
3.6163674430847976 0.8029925842782502 0.0
6.381079918269241 0.813530923687334 0.0
4.215035717478219 0.8145918407712017 0.0
5.794321606989612 0.8327711014906795 0.0
4.801647204196144 0.8315494174526115 0.0
5.299472660176746 0.19657011049693993 0.0
4.311567183998404 0.2679641198474839 0.0
4.74174393622611 0.2249856274644393 0.0
5.8569007076640665 0.22593270629413803 0.0
5.298216535205537 0.7262588771747229 0.0
0.1949422299850494 0.5062394060591568 0.0
9.805057769840507 0.496958179922638 0.0
9.48689774718591 0.1556277828990439 0.0
0.5131022515559633 0.16757133197285354 0.0
9.568779628500113 0.5063466847689506 0.0
0.43122037040120653 0.5155979360344384 0.0
9.509055520879356 0.8278936513133794 0.0
0.4909444786009076 0.8433181885182888 0.0
9.823616683546122 0.817306307465614 0.0
0.17638331641541405 0.8376063473525455 0.0
7.6921526540201395 0.19708421975822538 0.0
2.3078155520995076 0.1812546947934999 0.0
8.877127564940716 0.19590668804035422 0.0
1.122872335022493 0.18392470582457174 0.0
7.092545389899102 0.182412052761809 0.0
2.9072093065573115 0.20016464914961557 0.0
6.4926287445685205 0.1954502089291792 0.0
3.50661125732895 0.18218273102040478 0.0
1.7122074484218033 0.19231996618827554 0.0
8.28779014770528 0.17834550578317332 0.0
4.106340302598902 0.19580414542963975 0.0
8.57843164915482 0.8179693857651031 0.0
1.4215680002272273 0.8342590231262934 0.0
8.923747157620827 0.8330266810864805 0.0
1.0762528028580747 0.8158514909807674 0.0
0.8417482064508157 0.8138228304735824 0.0
9.15825178526377 0.833190886068554 0.0
8.346994499065008 0.8170495612209252 0.0
1.6530042623619987 0.8366451290486534 0.0
5.593284979807014 0.5038207015375398 0.0
5.004016734140193 0.5027139780639623 0.0
7.790813216070503 0.8476343012551099 0.0
2.2091699511012144 0.8243933182993329 0.0
7.779612259061756 0.5508244140751489 0.0
2.220350382153766 0.5399457688168057 0.0
2.8136618084107963 0.8531644206595829 0.0
7.186169423009037 0.8283686590612126 0.0
3.4102291885666745 0.8289245708792733 0.0
6.588586598017573 0.8513941377720474 0.0
4.007429215116786 0.8509364579001967 0.0
5.9858193936588595 0.829666134970455 0.0
4.610149964169016 0.8301299636027588 0.0
7.178274370048679 0.5467374667396572 0.0
2.821378546542653 0.5587566836469702 0.0
6.578239203147243 0.5541321753442895 0.0
3.4194940257977833 0.5475416760270457 0.0
5.980063684046125 0.5211992433174887 0.0
4.01893583319471 0.553927450764337 0.0
4.6171151151930845 0.521066881349965 0.0
8.550694719995661 0.5316443268733092 0.0
[...]
POINT_DATA 386
VECTORS vector double
1.0 0.0 0.0
0.0 0.0 0.0
0.0 0.0 0.0
0.0 0.0 0.0
0.0 0.0 0.0
1.0 0.0 0.0
0.0 0.0 0.0
0.0 0.0 0.0
0.0 0.0 0.0
0.0 0.0 0.0
0.0 0.0 0.0
0.0 0.0 0.0
0.0 0.0 0.0
0.0 0.0 0.0
0.0 0.0 0.0
0.0 0.0 0.0
0.0 0.0 0.0
0.0 0.0 0.0
0.0 0.0 0.0
0.0 0.0 0.0
0.0 0.0 0.0
0.0 0.0 0.0
0.0 0.0 0.0
0.0 0.0 0.0
0.0 0.0 0.0
0.0 0.0 0.0
0.0 0.0 0.0
0.0 0.0 0.0
0.0 0.0 0.0
0.0 0.0 0.0
0.0 0.0 0.0
0.0 0.0 0.0
0.0 0.0 0.0
0.0 0.0 0.0
0.0 0.0 0.0
0.0 0.0 0.0
0.0 0.0 0.0
0.0 0.0 0.0
0.0 0.0 0.0
0.0 0.0 0.0
0.0 0.0 0.0
0.0 0.0 0.0
0.0 0.0 0.0
0.0 0.0 0.0
0.0 0.0 0.0
0.0 0.0 0.0
0.0 0.0 0.0
0.0 0.0 0.0
0.0 0.0 0.0
0.0 0.0 0.0
0.0 0.0 0.0
0.0 0.0 0.0
0.0 0.0 0.0
0.0 0.0 0.0
0.972472601247 0.0957655512274 0.0
1.31431325921 -0.00605437881206 0.0
1.29710952251 -0.00617804452254 0.0
1.08512843027 -0.0672618036078 0.0
0.0 0.0 0.0
0.0 0.0 0.0
0.0 0.0 0.0
0.0 0.0 0.0
0.0 0.0 0.0
0.0 0.0 0.0
0.0 0.0 0.0
0.0 0.0 0.0
0.0 0.0 0.0
0.0 0.0 0.0
0.0 0.0 0.0
0.0 0.0 0.0
0.0 0.0 0.0
0.0 0.0 0.0
0.0 0.0 0.0
0.0 0.0 0.0
0.0 0.0 0.0
0.0 0.0 0.0
0.0 0.0 0.0
0.0 0.0 0.0
0.0 0.0 0.0
0.0 0.0 0.0
0.0 0.0 0.0
0.0 0.0 0.0
0.0 0.0 0.0
0.0 0.0 0.0
0.0 0.0 0.0
0.0 0.0 0.0
0.0 0.0 0.0
0.0 0.0 0.0
0.0 0.0 0.0
0.0 0.0 0.0
0.0 0.0 0.0
0.0 0.0 0.0
0.0 0.0 0.0
0.0 0.0 0.0
0.0 0.0 0.0
0.0 0.0 0.0
0.0 0.0 0.0
0.0 0.0 0.0
0.0 0.0 0.0
0.0 0.0 0.0
0.0 0.0 0.0
0.0 0.0 0.0
0.0 0.0 0.0
0.0 0.0 0.0
0.0 0.0 0.0
0.0 0.0 0.0
0.0 0.0 0.0
1.0 0.0 0.0
1.0 0.0 0.0
1.0 0.0 0.0
1.0 0.0 0.0
1.2271868434 -0.0256360958185 0.0
1.29661471777 -0.0500222963073 0.0
1.30411991027 0.0151639970004 0.0
1.28710436675 0.0439443176576 0.0
1.29882484936 -0.047470668996 0.0
1.29553425476 -0.0194052842679 0.0
1.29939350349 0.0307310317749 0.0
1.28495476749 0.0299661976361 0.0
1.27848259761 -0.0304971264735 0.0
1.29202318992 -0.0355050676072 0.0
1.30401907241 0.0181108315145 0.0
1.25694834542 0.0348347073818 0.0
1.27392689526 -0.0266013806408 0.0
1.25380262467 -0.0193769221941 0.0
1.27476427697 0.020495788678 0.0
1.2662100592 -0.0200204746233 0.0
1.264562013 -0.0304666302929 0.0
1.0659898572 -0.068845224674 0.0
1.20693278975 -0.0237323918858 0.0
1.26230500346 0.0304303612793 0.0
1.1814460338 0.0392519312081 0.0
1.24988775812 -0.0197555540549 0.0
1.25878982476 -0.0195618251409 0.0
1.26277381553 -0.0170376300228 0.0
1.25193044408 -0.00338577482817 0.0
1.27286022263 0.0272513638806 0.0
1.22564296277 0.0132662543314 0.0
1.24682157518 0.00081795518143 0.0
1.26475336396 0.0127394311873 0.0
1.29581584002 0.0322929014085 0.0
1.23083852829 -0.0158281854836 0.0
1.30623572734 -0.00792745971654 0.0
1.23841898665 0.0267752681481 0.0
1.26701116646 0.0322980209009 0.0
1.28994940772 -0.00990967367212 0.0
1.27062400099 -0.0249522448088 0.0
1.20412717898 0.0414604410031 0.0
1.25254695948 0.0454708295964 0.0
1.27573035565 0.00121916378871 0.0
1.22194801588 -0.0238657633578 0.0
1.26504860854 -0.021139635083 0.0
1.18952027001 -0.0205536184499 0.0
1.19367637916 0.0338454734253 0.0
1.27597742987 0.0272403215848 0.0
1.21446812749 0.112146480352 0.0
1.22565845353 -0.0360091702176 0.0
1.19070042483 -0.054362460555 0.0
1.17851856233 0.0279361783243 0.0
1.16095877805 -0.0314211378458 0.0
1.17914420819 0.0128452040145 0.0
1.15187357959 -0.0839954913387 0.0
1.17568529556 -0.069991133173 0.0
1.19917760446 0.037029730305 0.0
1.17611085021 0.0569677195296 0.0
1.13535626635 0.0441399524208 0.0
1.20331414135 0.062582261902 0.0
1.19985455718 -0.0343435539033 0.0
1.17444677988 -0.0575875626389 0.0
1.21138986368 -0.0768223109014 0.0
1.17539454833 -0.0448339835189 0.0
1.16616691903 -0.0455973971715 0.0
1.17079465917 -0.0480265155141 0.0
1.1394182626 0.0625977584333 0.0
1.1727464383 0.0389354567624 0.0
1.1601703971 -0.0379463866832 0.0
1.17449230007 -0.0502658169589 0.0
1.15789776338 0.079827436323 0.0
1.15659163731 0.0298933349806 0.0
1.10473075632 0.0684190305422 0.0
1.08975313199 0.0772943295661 0.0
1.07003208839 -0.0694879434744 0.0
1.13294891787 -0.0852143420267 0.0
1.12536934855 0.056619635731 0.0
1.08578247376 0.0651849390858 0.0
1.07125731061 -0.0559585547733 0.0
1.04621450826 -0.0515488141339 0.0
1.08369952874 0.0524983257235 0.0
1.06716942452 -0.00851226349148 0.0
1.17312836021 -0.0435407805642 0.0
0.974170269613 -0.0276794865427 0.0
1.01659430211 0.00685216952895 0.0
1.12104524729 -0.0150117567849 0.0
1.03837178378 0.0252523383035 0.0
1.32708033661 -0.0155893004095 0.0
0.940706956968 -0.0640275908337 0.0
1.13391644518 0.0022483112559 0.0
1.32786717022 -0.0442004229314 0.0
1.14236896676 -0.0056797115989 0.0
0.952889314043 -0.0787919019919 0.0
0.969011232606 -0.100788983115 0.0
0.906365976381 -0.0539559786291 0.0
0.996739674915 -0.0797417659669 0.0
1.01798094534 0.0337486822299 0.0
0.954066770006 0.0305555378422 0.0
1.04663060921 0.0347022817807 0.0
1.02468842839 0.0694929549379 0.0
0.950518201848 -0.0347847372455 0.0
1.03198895836 -0.0101767328642 0.0
1.03320711633 0.0206512676335 0.0
0.946088382007 0.0111450930785 0.0
1.03485690978 -0.0217267621813 0.0
0.945636197367 -0.0591113128182 0.0
1.02485661389 0.00917325302092 0.0
1.04384880257 0.0216583378732 0.0
0.936629616022 0.0614427796628 0.0
0.946509285195 0.0486067155643 0.0
1.00730849648 0.0291963752803 0.0
1.01668847643 -0.026640422001 0.0
0.939770795521 -0.035688800958 0.0
1.06652555599 -0.0283205008323 0.0
0.946707414309 -0.0205801091973 0.0
1.254833249 -0.0582266638975 0.0
1.26017724516 0.0387901527922 0.0
0.975676117199 -0.000682049109753 0.0
1.05165961729 0.0253451136609 0.0
1.2959481851 0.0101272539336 0.0
1.31952722936 0.0143211747507 0.0
0.96033203486 0.00904807651394 0.0
1.06527722248 -0.0158837884382 0.0
1.0639368945 -0.0031874573376 0.0
0.987434295279 -0.0114684077221 0.0
0.970244373841 0.0321154281628 0.0
1.06847503604 0.031278141669 0.0
1.07607081355 -0.0296985461288 0.0
1.31450920833 -0.00317419361981 0.0
1.29069069547 -0.00240724635061 0.0
1.27567286865 0.0108660688493 0.0
1.31597142419 -0.00485227256213 0.0
1.26424082225 0.0232129941522 0.0
1.28837373099 0.00307880522357 0.0
1.30580680357 -0.00688583988568 0.0
1.31178480978 0.00443320547085 0.0
1.30580662448 0.0413087648611 0.0
1.2912610137 0.036364175415 0.0
1.28101567905 0.00265248496223 0.0
1.31151075733 0.00580763484275 0.0
1.3044883179 -0.0289779162118 0.0
1.30693329884 -0.0287340036656 0.0
1.3083765719 0.00390562768264 0.0
1.31966761661 -0.0329719687497 0.0
1.31643232929 -0.00994173061313 0.0
1.29413277634 -0.0347638585269 0.0
1.29470385373 0.038510043401 0.0
1.26299715209 0.0498514379381 0.0
1.31064781739 -0.0237009306371 0.0
1.27518855276 -0.0344052098535 0.0
1.29550288776 0.0417035126647 0.0
1.30109918101 0.0317871024759 0.0
1.02797526346 -0.0912997356609 0.0
0.98921760609 0.0734188851791 0.0
1.0474399883 0.0979787974719 0.0
1.03838489456 -0.0362282029248 0.0
1.01790441547 -0.0845344434871 0.0
1.03007406248 -0.0788547116685 0.0
1.01478119018 -0.0694940243931 0.0
0.969170458106 0.0633566809423 0.0
1.04529971598 0.0795581936764 0.0
0.960055319444 0.0965589257104 0.0
1.0273030386 -0.125668966694 0.0
1.26904700633 0.25720967917 0.0
0.982167311472 0.00291270162388 0.0
1.05872300299 -0.00430031260601 0.0
1.01400497222 -0.0220816977621 0.0
1.27236494625 -0.070675586353 0.0
1.16378380398 -0.0727943683721 0.0
0.978466712401 0.0294265618728 0.0
0.868093582014 0.0188388210232 0.0
0.930337711759 -0.01521477381 0.0
0.857162258027 -0.043130143323 0.0
0.878349536296 0.0893971124637 0.0
0.815623963477 -0.0791129244089 0.0
0.871252694368 0.0455892270821 0.0
0.948521949709 0.0341801164902 0.0
0.939581442182 -0.034365102076 0.0
0.860246497706 -0.0581629201492 0.0
1.28223425467 0.0215875598241 0.0
1.27160206936 0.0514828227597 0.0
0.93666056795 0.0474582536274 0.0
1.25905868994 -0.0366928810633 0.0
1.30360367592 -0.0149242004667 0.0
0.998602643299 0.0548796758377 0.0
1.05204407844 0.16835189061 0.0
1.27088428337 0.0170362638973 0.0
1.2770012335 0.0324530664638 0.0
1.00595959114 -0.104028331911 0.0
1.03679684898 -0.0737400133949 0.0
1.29474074268 -0.0201082413283 0.0
1.25253531834 -0.0140275484066 0.0
1.27166699578 0.0378965620787 0.0
1.2617427509 0.00160520545856 0.0
1.04977166836 0.107347323613 0.0
1.28917893195 -0.0143577864447 0.0
1.20583672766 -0.02200966016 0.0
1.2109223654 0.00121039768358 0.0
1.28851997316 0.018372633812 0.0
1.22958948394 0.0392552067339 0.0
1.28612678111 0.0209508660425 0.0
1.20945991357 -0.0101413641811 0.0
1.25783438428 -0.00295011015096 0.0
1.21802623889 0.028451475852 0.0
1.27251133198 0.0213333661961 0.0
1.19993653563 0.025742941517 0.0
1.2851933291 -0.00081646902626 0.0
1.20595060482 -0.0190915387288 0.0
1.28229743359 -0.018525891867 0.0
1.24608268706 0.0119995516431 0.0
1.25874825492 0.0450268174073 0.0
1.24868441813 -0.0429354670145 0.0
1.27398658646 -0.0300333795381 0.0
1.24978768764 -0.045605075 0.0
1.22752418187 -0.00176327687539 0.0
1.29793239033 -0.0538009640433 0.0
1.24294096708 -0.0381489421517 0.0
1.22769140056 -0.0321767333474 0.0
1.24411013429 0.057799626149 0.0
1.23744966169 0.0488731266955 0.0
1.25140655526 -0.0439463512356 0.0
1.22629148517 -0.0631788826832 0.0
1.27092316583 0.0372760089656 0.0
1.28074052961 -0.038554624968 0.0
1.22825184723 0.0606985910869 0.0
1.26651787269 0.0436641092053 0.0
1.24144242423 -0.043026341185 0.0
1.23693012352 0.00776202182177 0.0
1.03085154649 -0.171110071113 0.0
1.24267936379 -0.0566524079392 0.0
1.26986548793 0.0574833128395 0.0
1.27771594075 0.00250848173956 0.0
1.27319212024 -0.0337520520758 0.0
1.23625347604 -0.00237293575943 0.0
1.09111414983 0.11518943244 0.0
0.802203593464 -0.0311514815012 0.0
1.20993588828 0.142455411282 0.0
1.0054782785 -0.0598056810281 0.0
1.29352829954 -0.0106097178687 0.0
1.28516097126 -0.0421278193271 0.0
1.24562564489 0.00621786689104 0.0
1.28199371351 0.00478585200946 0.0
1.29500103652 0.0609001979093 0.0
0.941412392452 0.0896794542362 0.0
0.829736542009 0.00706230162024 0.0
0.973621152999 -0.098738520451 0.0
0.863001292024 -0.101494824286 0.0
1.27975492644 -0.0477741456954 0.0
1.29665091225 -0.00941420598642 0.0
0.719572215176 -0.0142025888347 0.0
0.755807139429 0.0694299680561 0.0
0.769789640301 0.0471839703714 0.0
1.28608970262 0.0467193829262 0.0
1.27556456599 0.0278294421777 0.0
1.25770559444 -0.0126671050599 0.0
1.23625375872 0.00856241492439 0.0
1.29388096937 -0.0194672062965 0.0
1.26878682919 -0.0414880353842 0.0
1.27669491651 0.0403375014631 0.0
1.26289402381 0.0549102028539 0.0
0.750907808864 -0.0414538278729 0.0
0.75885351295 -0.0815176098819 0.0
1.29645223102 -0.0255832597912 0.0
0.767769847405 0.0750835227386 0.0
0.768959502279 0.0591303048828 0.0
0.743634724178 -0.0441918841508 0.0
0.748055050271 -0.081958972586 0.0
0.826666703549 -0.0797921602711 0.0
0.778883104696 -0.0953371085531 0.0
0.814237724927 0.0634657491359 0.0
0.794983168206 0.0698935772031 0.0
0.83901770936 0.109537756152 0.0
0.78836393501 0.0397444920964 0.0
0.879370232154 -0.0860033616886 0.0
0.820931754952 -0.0707283435938 0.0
0.584219534164 0.0678400374275 0.0
0.944306342175 0.0210571218832 0.0
0.797320784585 -0.0819112126657 0.0
0.768154666892 -0.0327973812763 0.0

SCALARS scalar1 double
LOOKUP_TABLE default
2.19031027069
6.35126786916
8.42967536078
5.32396131996
-7.24689721688
-2.55640788818
7.57589782646
8.02382249124
7.00448787381
7.75400359758
7.40691456174
7.44957819049
6.3296633907
5.7171361086
7.76087307201
8.1531285011
7.77523311827
7.05480461995
6.63458825453
6.41005860042
7.07338540226
8.63470056445
8.13033251879
7.40006391783
6.84066701163
6.28809849228
6.72854139367
8.43393966842
9.13254242415
8.55596339728
9.26509555312
4.83676420398
8.77824316773
7.95033646955
8.84924631912
8.6704234128
7.0113426455
6.50997165542
6.99306191189
7.43783542344
8.07744429863
8.736884688
7.27954805577
6.43511709102
6.5217989787
7.46843577319
7.82858256908
7.76142360844
6.35700119275
5.65912373995
6.0535149396
7.21548295795
7.99402190656
7.32730534035
3.16225122637
0.274468016049
-0.272796601406
-2.14032418272
-6.70822230545
-6.6479754699
-6.7942733392
-7.50575235379
-7.56304666388
-6.98709278459
-6.47771149999
-5.7426791899
-5.86706714968
-7.59040349803
-7.39978917023
-7.04585664467
-6.35990002653
-5.63196835066
-5.66407943367
-7.40159691891
-7.61405994351
-7.34323939401
-7.0539126774
-7.876602997
-5.39077853483
-7.42190430008
-7.72180468812
-7.4932477376
-6.76958705985
-4.81153309689
-7.11399953158
-6.47465076678
-7.01018450236
-7.57371438964
-7.22261436764
-5.55556573275
-5.50137893255
-6.21334728567
-6.8918425553
-7.45840411742
-7.50027893743
-5.77490418824
-5.59074085762
-6.13564851433
-6.93458641176
-7.75467259844
-8.54436614805
-6.44982318609
-6.15967283336
-5.99832112015
-8.12733891806
-11.3031354677
-13.5725419176
3.71515256234
0.143857569764
-0.027583680343
-1.11396483284
0.0518078175876
0.0634310235807
0.0417272484222
0.118907935171
-0.0151233864187
0.107268586423
0.108582661185
0.00348347307345
0.0976627578534
0.0191154891321
0.0400404576819
-0.00306183219741
0.057744684317
0.0327769358142
-0.0465672436073
-0.0714500603113
1.05845265193
-0.160945958349
-0.719523130655
-0.39901754713
-0.321803752945
-0.517356666211
-0.312590109596
-0.476713198851
-0.547220296074
-0.401361560106
-0.512796122196
0.648343069426
0.619374230953
-0.417175682149
-0.568051996261
0.560105475465
0.670283806614
-0.130626484057
-0.417795779766
0.582345773785
0.601401814909
0.199256044917
0.674529285616
0.489688939876
0.673119001103
0.451968431608
0.652758794989
0.641830438941
1.19222182449
-0.90452742936
-0.570399989906
-0.784441424618
0.432982657749
0.17752508844
1.10607436091
1.29186644545
1.43532485356
1.4447397698
-1.3310747759
-1.2558518116
-1.86708517422
-1.93419745406
1.17077628382
1.29229772925
-1.50362762033
-1.52394812646
-1.30553527289
-1.32370283018
-1.28968195959
-1.44507372281
-1.34712525942
-1.27959321385
2.53499295995
2.07869381661
1.95648234656
2.32768766985
2.66688737977
1.73933552047
1.80256138051
3.47786728526
3.54811430318
-2.92534962589
-1.65625016354
-1.72000328496
-1.11326004755
0.344365809981
0.0817834471075
-0.0138129268982
-3.3036759813
-3.92793374579
0.0341811292378
0.0437873804543
3.56311223454
2.35593291792
4.29116511159
0.462356226565
-3.05449549535
-2.51760285071
-2.84662920327
-2.21098018626
-2.30226506052
-3.17495025109
-3.23792354704
-2.44614862614
-3.33933365397
-2.55196559358
-3.25290589592
3.40885591887
2.78177363031
2.78771997529
3.37950999975
3.44986405539
2.4582157575
3.52804509647
2.45057623637
-0.00884523223414
-0.0989861628063
2.19960467954
3.57301392312
-0.087835130261
0.0615892173748
2.33209986137
3.91232700583
3.7082242986
2.10744551356
2.34638983823
3.69067036497
3.67136569532
-0.0101849220081
-0.0284297030483
-0.0521793855522
0.0138005380355
0.0231432160714
-0.0618725049047
-0.019897688752
-0.0180890279913
0.0437800011861
0.0902736557819
0.111116420504
-0.0352260411118
-0.0391556974238
0.0337809928677
0.00494316471971
-0.0364791253263
0.0777279088221
-0.0936176709734
-0.0121592872665
0.000841819678411
0.0583416925693
-0.0466508571375
0.026491153099
-0.0306744029258
3.06298191136
2.86073670778
3.10603527382
3.24182541334
2.29869368283
3.381300254
2.36468782434
2.69032715956
3.57109570778
-2.40042718642
-2.11563695283
0.0341580857049
-2.93054997641
-3.1782263354
-2.44890496262
0.727137651451
-0.00633811762275
-4.09202882974
-2.74214505039
-4.0138924882
-3.2786429648
-3.21485371411
-4.07097264829
-2.71058668384
-3.72087643046
-3.77941410864
-3.34449442341
-0.400155885064
-0.130330157583
-3.53076817821
-0.403431034953
-0.211733262851
-2.88074540798
2.31586477347
-0.278199148726
-0.391352898025
2.91195940457
-2.84681059169
-0.180336238198
-0.312126372576
-0.257753599766
-0.268291378445
2.91790056438
-0.18173815837
-0.222799622481
-0.487485344117
0.434754189002
0.731480444608
0.291405365809
0.492725760994
0.331091787568
0.714698156352
0.609070866507
0.617028780897
0.531316006811
0.566930376979
0.923508641046
0.704885871133
0.488268195952
0.806340343533
0.710948098165
0.350396595809
0.529728327243
0.602833256663
0.639864076776
0.499310897458
0.910255305058
0.229155378528
0.907534115212
0.433002169605
0.531511207438
-0.313296811006
0.926303910213
0.50311298671
-0.116307280941
-0.347404570397
2.54782517229
0.410825201359
0.0582546492964
-0.0377653315339
0.032631457652
-0.771255937327
1.88160785455
-3.53062246746
-5.21917360562
-0.354616387358
0.8939085154
-0.22038860317
0.15886974296
-0.28866794302
-0.104574855032
-2.82804037517
5.36018609284
2.52788271162
-3.47925825015
-0.255706738845
-0.120076304541
-5.13598779399
-3.66536414007
-4.48084026432
-0.157015755865
-0.273232908282
-0.342838322754
-0.0529678029383
-0.106001601002
-0.153261118528
-0.162512937456
-0.13451925968
-4.55804299111
-4.01502028355
-0.120634100728
-3.94411551699
-3.90072401336
-4.43174410624
-4.47024073283
4.25874112133
3.83369512068
4.48471769465
4.43751798227
-4.33774027735
-3.69331724596
4.40973706803
3.81025472669
5.88680690331
1.49715572276
-4.38414025469
-5.04497932953

SCALARS scalar2 double
LOOKUP_TABLE default
2.19031027069
6.35126786916
8.42967536078
5.32396131996
-7.24689721688
-2.55640788818
7.57589782646
8.02382249124
7.00448787381
7.75400359758
7.40691456174
7.44957819049
6.3296633907
5.7171361086
7.76087307201
8.1531285011
7.77523311827
7.05480461995
6.63458825453
6.41005860042
7.07338540226
8.63470056445
8.13033251879
7.40006391783
6.84066701163
6.28809849228
6.72854139367
8.43393966842
9.13254242415
8.55596339728
9.26509555312
4.83676420398
8.77824316773
7.95033646955
8.84924631912
8.6704234128
7.0113426455
6.50997165542
6.99306191189
7.43783542344
8.07744429863
8.736884688
7.27954805577
6.43511709102
6.5217989787
7.46843577319
7.82858256908
7.76142360844
6.35700119275
5.65912373995
6.0535149396
7.21548295795
7.99402190656
7.32730534035
3.16225122637
0.274468016049
-0.272796601406
-2.14032418272
-6.70822230545
-6.6479754699
-6.7942733392
-7.50575235379
-7.56304666388
-6.98709278459
-6.47771149999
-5.7426791899
-5.86706714968
-7.59040349803
-7.39978917023
-7.04585664467
-6.35990002653
-5.63196835066
-5.66407943367
-7.40159691891
-7.61405994351
-7.34323939401
-7.0539126774
-7.876602997
-5.39077853483
-7.42190430008
-7.72180468812
-7.4932477376
-6.76958705985
-4.81153309689
-7.11399953158
-6.47465076678
-7.01018450236
-7.57371438964
-7.22261436764
-5.55556573275
-5.50137893255
-6.21334728567
-6.8918425553
-7.45840411742
-7.50027893743
-5.77490418824
-5.59074085762
-6.13564851433
-6.93458641176
-7.75467259844
-8.54436614805
-6.44982318609
-6.15967283336
-5.99832112015
-8.12733891806
-11.3031354677
-13.5725419176
3.71515256234
0.143857569764
-0.027583680343
-1.11396483284
0.0518078175876
0.0634310235807
0.0417272484222
0.118907935171
-0.0151233864187
0.107268586423
0.108582661185
0.00348347307345
0.0976627578534
0.0191154891321
0.0400404576819
-0.00306183219741
0.057744684317
0.0327769358142
-0.0465672436073
-0.0714500603113
1.05845265193
-0.160945958349
-0.719523130655
-0.39901754713
-0.321803752945
-0.517356666211
-0.312590109596
-0.476713198851
-0.547220296074
-0.401361560106
-0.512796122196
0.648343069426
0.619374230953
-0.417175682149
-0.568051996261
0.560105475465
0.670283806614
-0.130626484057
-0.417795779766
0.582345773785
0.601401814909
0.199256044917
0.674529285616
0.489688939876
0.673119001103
0.451968431608
0.652758794989
0.641830438941
1.19222182449
-0.90452742936
-0.570399989906
-0.784441424618
0.432982657749
0.17752508844
1.10607436091
1.29186644545
1.43532485356
1.4447397698
-1.3310747759
-1.2558518116
-1.86708517422
-1.93419745406
1.17077628382
1.29229772925
-1.50362762033
-1.52394812646
-1.30553527289
-1.32370283018
-1.28968195959
-1.44507372281
-1.34712525942
-1.27959321385
2.53499295995
2.07869381661
1.95648234656
2.32768766985
2.66688737977
1.73933552047
1.80256138051
3.47786728526
3.54811430318
-2.92534962589
-1.65625016354
-1.72000328496
-1.11326004755
0.344365809981
0.0817834471075
-0.0138129268982
-3.3036759813
-3.92793374579
0.0341811292378
0.0437873804543
3.56311223454
2.35593291792
4.29116511159
0.462356226565
-3.05449549535
-2.51760285071
-2.84662920327
-2.21098018626
-2.30226506052
-3.17495025109
-3.23792354704
-2.44614862614
-3.33933365397
-2.55196559358
-3.25290589592
3.40885591887