# vtk DataFile Version 2.0
2D Simulation Python
ASCII
DATASET UNSTRUCTURED_GRID
FIELD FieldData 1
NODES 1 2 int
386 659

POINTS 386 double
0.0 1.0 0.0
1.725 0.7313997745064847 0.0
8.275 1.2686002254935154 0.0
10.0 0.9999999999999997 0.0
10.0 -2.830275115737231e-16 0.0
0.0 0.0 0.0
0.1916666666663293 1.1338401448003506 0.0
0.3833333333324708 1.2372192307338166 0.0
0.574999999998553 1.2866089178775018 0.0
0.7666666666645966 1.2707684669918375 0.0
0.9583333333312576 1.193303051304789 0.0
1.149999999998384 1.0718432448930761 0.0
1.341666666665662 0.9340324302306844 0.0
1.533333333332819 0.8112353622215795 0.0
1.92348484848444 0.7132552840666735 0.0
2.121969696968978 0.7649991774385827 0.0
2.320454545453434 0.8740198984924777 0.0
2.518939393937826 1.0137457910719299 0.0
2.717424242422235 1.150121417477864 0.0
2.915909090906411 1.2499079014861154 0.0
3.1143939393908 1.28878425056917 0.0
3.312878787875129 1.2572751193938083 0.0
3.511363636359531 1.1630602388522973 0.0
3.709848484843827 1.0291026327292028 0.0
3.90833333332816 0.888051832370627 0.0
4.106818181812215 0.7742861956840574 0.0
4.305303030296804 0.715533858671388 0.0
4.503787878781365 0.7261145477335613 0.0
4.702272727265711 0.8034494280495084 0.0
4.900757575750005 0.9286896438348333 0.0
5.099242424235156 1.0713103561547255 0.0
5.297727272720327 1.1965505719430631 0.0
5.496212121205663 1.273885452263443 0.0
5.694696969690998 1.2844661413301557 0.0
5.89318181817668 1.2257138043209752 0.0
6.09166666666213 1.1119481676358718 0.0
6.290151515147423 0.9708973672771182 0.0
6.488636363633031 0.8369397611521615 0.0
6.687121212118713 0.7427248806082256 0.0
6.885606060604342 0.7112157494307361 0.0
7.084090909089381 0.7500920985123523 0.0
7.282575757574369 0.8498785825200296 0.0
7.481060606059355 0.9862542089260251 0.0
7.679545454544343 1.125980101506069 0.0
7.878030303029329 1.2350008225607023 0.0
8.076515151514705 1.286744715933251 0.0
8.46666666666447 1.188764637779911 0.0
8.658333333329285 1.0659675697728876 0.0
8.84999999999549 0.928156755111233 0.0
9.041666666661694 0.8066969486990141 0.0
9.233333333327899 0.7292315330100616 0.0
9.42499999999549 0.7133910821219562 0.0
9.616666666663775 0.7627807692646278 0.0
9.808333333331985 0.8661598551985649 0.0
10.0 0.7999999999999998 0.0
10.0 0.6000000000013869 0.0
10.0 0.4000000000016644 0.0
10.0 0.2000000000008322 0.0
9.799999999999999 -0.13917231448634823 0.0
9.6 -0.24391525772310269 0.0
9.399999999999999 -0.28831682492840344 0.0
9.2 -0.26139266158449126 0.0
8.999999999999998 -0.16980344599346492 0.0
8.799999999999997 -0.03620712645259059 0.0
8.599999999999998 0.10634635244226799 0.0
8.399999999999997 0.2225911645395092 0.0
8.199999999999998 0.28376989636716005 0.0
7.999999999999997 0.2747477470242858 0.0
7.799999999999997 0.19775667572160613 0.0
7.599999999999998 0.07184324489193822 0.0
7.399999999999997 -0.0718432448919426 0.0
7.199999999999998 -0.19775667572160865 0.0
6.999999999999997 -0.2747477470242871 0.0
6.799999999999997 -0.28376989636715916 0.0
6.599999999999998 -0.22259116453950628 0.0
6.399999999999997 -0.1063463524422638 0.0
6.199999999999998 0.036207126452594066 0.0
5.999999999999997 0.1698034459934682 0.0
5.799999999999998 0.26139266158449254 0.0
5.599999999999998 0.28831682492840327 0.0
5.399999999999999 0.24391525772310188 0.0
5.199999999999998 0.13917231448634604 0.0
4.999999999999999 -1.1678461160078987e-15 0.0
4.799999999999999 -0.13917231448634762 0.0
4.599999999999999 -0.24391525772310288 0.0
4.399999999999999 -0.28831682492840344 0.0
4.199999999999999 -0.26139266158449154 0.0
3.999999999999999 -0.16980344599346592 0.0
3.799999999999999 -0.036207126452592255 0.0
3.599999999999999 0.1063463524422669 0.0
3.399999999999998 0.22259116453950806 0.0
3.199999999999998 0.28376989636716005 0.0
2.999999999999999 0.2747477470242862 0.0
2.799999999999998 0.19775667572160696 0.0
2.599999999999998 0.07184324489193811 0.0
2.399999999999999 -0.07184324489194048 0.0
2.199999999999999 -0.19775667572160852 0.0
1.999999999999998 -0.27474774702428695 0.0
1.799999999999999 -0.28376989636715944 0.0
1.6 -0.22259116453950734 0.0
1.4 -0.10634635244226642 0.0
1.199999999999999 0.0362071264525938 0.0
0.9999999999999982 0.16980344599346786 0.0
0.7999999999999989 0.2613926615844921 0.0
0.6000000000000014 0.28831682492840344 0.0
0.3999999999999986 0.24391525772310174 0.0
0.1999999999999993 0.13917231448634645 0.0
0.0 0.1999999999995579 0.0
0.0 0.3999999999989749 0.0
0.0 0.5999999999989468 0.0
0.0 0.7999999999994734 0.0
0.6678915725959558 0.536436958589839 0.0
9.332108427399964 0.5364369585890589 0.0
8.750132450591927 0.5506960869899322 0.0
1.2498675494039537 0.550696086989921 0.0
8.174032264135212 0.5498445052942911 0.0
1.825967735863654 0.5498445052937755 0.0
2.418567295624824 0.5600008526061507 0.0
7.581432704373232 0.5611851303837251 0.0
3.014784120622567 0.563403941055332 0.0
6.985172458121188 0.5577259616183353 0.0
3.610726640972639 0.5615320047813497 0.0
6.386248723767179 0.5592784628964644 0.0
4.209309039669713 0.5572934676961344 0.0
5.802919286003517 0.5136288984503518 0.0
4.792575750270755 0.5113399422619378 0.0
5.297706186402614 0.5136873848549905 0.0
9.668948285380061 0.6850731737961284 0.0
0.33105171461725624 0.697435007282602 0.0
4.516362448137511 0.3172945767854789 0.0
3.8986185490966 0.3368486050855547 0.0
6.080042400096589 0.3289971233364015 0.0
3.3008603596305743 0.34506828666652584 0.0
6.697929509029805 0.33553977571302146 0.0
7.8917286729276945 0.3439071145341727 0.0
2.1082713270713 0.3353642974863986 0.0
2.7040521558359196 0.3442709246469773 0.0
7.295944586981923 0.33603443269805827 0.0
9.037461182852388 0.6593754555091565 0.0
0.9625388171421155 0.6681692670494543 0.0
1.5203624097030919 0.3346030798586833 0.0
8.479637590294983 0.3439128535248426 0.0
8.46705744021449 0.6700187699212669 0.0
1.532942559782806 0.661431421511796 0.0
0.9798849666140502 0.3548942364099312 0.0
9.020115033382817 0.347210009084239 0.0
4.511080799328552 0.6604558782030266 0.0
3.9062200870698707 0.6645487525274689 0.0
6.084316098808868 0.6722993627081977 0.0
2.111050455320367 0.6609721962347708 0.0
7.888949544678595 0.6722390844671611 0.0
3.3102621739031353 0.674217910980795 0.0
6.6894888998481665 0.6609301656694663 0.0
2.714506990010662 0.6715479409001007 0.0
7.285493009986476 0.6637763263722294 0.0
0.34041031473394257 0.30939826041250335 0.0
9.659589685265157 0.2967142220649342 0.0
5.5810152634969565 0.32073527788422845 0.0
5.015878571805126 0.3115858437226289 0.0
5.5137985806325975 0.6944362108876276 0.0
5.080500727952708 0.6870248593737341 0.0
0.6685192030956227 0.7393225558949931 0.0
9.331480796899008 0.7184471757798611 0.0
8.753459913344232 0.7314754485805123 0.0
1.2465400866509957 0.7316955094492676 0.0
8.679620709650274 0.25934221866298923 0.0
1.3203792903477085 0.2561653692158101 0.0
0.6890603276779935 0.24327038051653463 0.0
9.310939672320577 0.21940390300828513 0.0
8.176669234715755 0.7418018127672952 0.0
1.8233307652831716 0.7210651041237849 0.0
8.093967824166539 0.2671974253891311 0.0
1.906032175832643 0.24559865022786453 0.0
7.499451686415813 0.2567565194423321 0.0
2.5005483135825175 0.25722097226243684 0.0
6.901915048676056 0.24638642772847416 0.0
3.0977519114141128 0.2679995375105991 0.0
6.299154625459925 0.25269947000708937 0.0
3.695333244186268 0.25850747653782635 0.0
2.4172390397506605 0.7739589518679196 0.0
7.582760960247228 0.8055788485600316 0.0
3.0138640667562826 0.8654177903811803 0.0
6.986135933239627 0.7136514532344921 0.0
3.609502629158365 0.8165185183033432 0.0
6.389821800026214 0.7627648743172996 0.0
4.2057196025120325 0.7176568569090879 0.0
5.799639647217908 0.9163103931173726 0.0
4.795104887305768 0.7877769894610254 0.0
5.299095661741034 0.2411651141930294 0.0
4.297479556665692 0.24300880499464084 0.0
4.737830245696537 0.20588233551878088 0.0
5.859573993289756 0.2774943639426927 0.0
5.297257407561438 0.7384215940379673 0.0
0.20091758286607478 0.4981940613098657 0.0
9.799082417132857 0.49819406131032223 0.0
9.480683328253692 0.08547678143856725 0.0
0.5193166717456771 0.23727445241805858 0.0
9.558757026643876 0.504400119788672 0.0
0.4412429733535267 0.5044001197894197 0.0
9.503249178016192 0.7555795901927721 0.0
0.4967508219792289 0.9051262552247812 0.0
9.818892130171056 0.7970419656747423 0.0
0.18110786982737584 0.8456752645322759 0.0
7.700116944406039 0.2122714521297024 0.0
2.2998830555930807 0.13632865492871937 0.0
8.8797361495177 0.15175101562410398 0.0
1.1202638504807292 0.20899056104904723 0.0
7.102384369458095 0.10734144719009578 0.0
2.8975752711929053 0.24155658513214226 0.0
6.502273621492959 0.1278261861527494 0.0
3.495752122939602 0.2210014181068246 0.0
1.705172848081281 0.1019628681968757 0.0
8.294827151917946 0.24572075413289782 0.0
4.0954488155448185 0.1129548651981023 0.0
8.582172158903719 0.8581990314709489 0.0
1.4178278410925231 0.7870847152541619 0.0
8.925281788563497 0.7851796177319638 0.0
1.074718211430672 0.8592434424069239 0.0
0.843714767885675 0.8871896066864468 0.0
9.156285232108049 0.7556353373962985 0.0
8.350503770871434 0.8874901511276061 0.0
1.649496229126785 0.7578217955058733 0.0
5.595954433159773 0.4934731959153352 0.0
4.999547461766641 0.4918689877572526 0.0
7.792864031262508 0.8810946392717374 0.0
2.207135968735987 0.76533688384604 0.0
7.7882435010538815 0.5183088025324082 0.0
2.211756498944828 0.5183088025321086 0.0
2.809328102939547 0.8869583357026455 0.0
7.190671897057074 0.7583964129042343 0.0
3.4049442800379786 0.8904569823812423 0.0
6.594977699857072 0.7547726869766676 0.0
4.000623606138969 0.7683030803719373 0.0
5.992807911097384 0.8860809821564578 0.0
4.6023783010903205 0.7532883667103807 0.0
7.19104051737716 0.5185569682598344 0.0
2.8089581971551687 0.5185567843990526 0.0
6.593717629483236 0.5185878718990932 0.0
3.4049800489097404 0.5185307388017358 0.0
5.991319406879302 0.5132061182623701 0.0
4.002058402208371 0.5184571727635279 0.0
4.6042984609015125 0.5114329193939812 0.0
8.560337877784717 0.5207585121451969 0.0
1.4396621222122326 0.52075851214495 0.0
[...]
POINT_DATA 386
VECTORS vector double
1.0 0.0 0.0
0.0 0.0 0.0
0.0 0.0 0.0
0.0 0.0 0.0
0.0 0.0 0.0
1.0 0.0 0.0
0.0 0.0 0.0
0.0 0.0 0.0
0.0 0.0 0.0
0.0 0.0 0.0
0.0 0.0 0.0
0.0 0.0 0.0
0.0 0.0 0.0
0.0 0.0 0.0
0.0 0.0 0.0
0.0 0.0 0.0
0.0 0.0 0.0
0.0 0.0 0.0
0.0 0.0 0.0
0.0 0.0 0.0
0.0 0.0 0.0
0.0 0.0 0.0
0.0 0.0 0.0
0.0 0.0 0.0
0.0 0.0 0.0
0.0 0.0 0.0
0.0 0.0 0.0
0.0 0.0 0.0
0.0 0.0 0.0
0.0 0.0 0.0
0.0 0.0 0.0
0.0 0.0 0.0
0.0 0.0 0.0
0.0 0.0 0.0
0.0 0.0 0.0
0.0 0.0 0.0
0.0 0.0 0.0
0.0 0.0 0.0
0.0 0.0 0.0
0.0 0.0 0.0
0.0 0.0 0.0
0.0 0.0 0.0
0.0 0.0 0.0
0.0 0.0 0.0
0.0 0.0 0.0
0.0 0.0 0.0
0.0 0.0 0.0
0.0 0.0 0.0
0.0 0.0 0.0
0.0 0.0 0.0
0.0 0.0 0.0
0.0 0.0 0.0
0.0 0.0 0.0
0.0 0.0 0.0
0.74074277207 0.14015810718 0.0
1.01940008836 0.0354582899929 0.0
1.11523402597 0.0505547462509 0.0
1.55595088006 0.058067033406 0.0
0.0 0.0 0.0
0.0 0.0 0.0
0.0 0.0 0.0
0.0 0.0 0.0
0.0 0.0 0.0
0.0 0.0 0.0
0.0 0.0 0.0
0.0 0.0 0.0
0.0 0.0 0.0
0.0 0.0 0.0
0.0 0.0 0.0
0.0 0.0 0.0
0.0 0.0 0.0
0.0 0.0 0.0
0.0 0.0 0.0
0.0 0.0 0.0
0.0 0.0 0.0
0.0 0.0 0.0
0.0 0.0 0.0
0.0 0.0 0.0
0.0 0.0 0.0
0.0 0.0 0.0
0.0 0.0 0.0
0.0 0.0 0.0
0.0 0.0 0.0
0.0 0.0 0.0
0.0 0.0 0.0
0.0 0.0 0.0
0.0 0.0 0.0
0.0 0.0 0.0
0.0 0.0 0.0
0.0 0.0 0.0
0.0 0.0 0.0
0.0 0.0 0.0
0.0 0.0 0.0
0.0 0.0 0.0
0.0 0.0 0.0
0.0 0.0 0.0
0.0 0.0 0.0
0.0 0.0 0.0
0.0 0.0 0.0
0.0 0.0 0.0
0.0 0.0 0.0
0.0 0.0 0.0
0.0 0.0 0.0
0.0 0.0 0.0
0.0 0.0 0.0
0.0 0.0 0.0
0.0 0.0 0.0
1.0 0.0 0.0
1.0 0.0 0.0
1.0 0.0 0.0
1.0 0.0 0.0
1.30654034457 -0.0788371689132 0.0
1.69484447069 -0.0480577788567 0.0
1.19711919919 -0.435480838891 0.0
1.16778308747 -0.393902122586 0.0
1.29371269444 -0.0641978040864 0.0
1.44520128412 -0.116279516661 0.0
1.17145299405 0.448898472695 0.0
1.1939427503 0.376842842798 0.0
1.3696224856 0.455123810121 0.0
-0.341751439877 -0.419572806363 0.0
0.424421936534 -0.322696090361 0.0
0.572579022114 -2.31438932912 0.0
3.23875265105 -1.41698893427 0.0
1.21709116295 -0.261716756323 0.0
0.517348863882 -0.224970387044 0.0
1.53840830839 0.407626016336 0.0
0.984258457841 0.218136232777 0.0
1.16641752334 0.065245035045 0.0
0.249305521041 0.0212473762309 0.0
1.30232830189 -0.220862130448 0.0
1.55201527364 -1.01550727129 0.0
13.1273810354 -4.80193189883 0.0
1.91033536589 0.855575205482 0.0
1.34367293508 0.442444528181 0.0
1.16816530576 0.144192778776 0.0
1.57208572881 1.20775686996 0.0
1.03008187629 0.220741958831 0.0
1.28323926722 -0.471528919742 0.0
1.14773912895 -0.257623787899 0.0
1.18403874841 -0.243209938844 0.0
1.51751249877 -0.0445217607039 0.0
1.14263770141 -0.231712443096 0.0
1.28840334148 -0.344807406886 0.0
1.1927429559 -0.380826357287 0.0
1.18637738287 -0.335263005894 0.0
-11.6131929407 -3.93640230461 0.0
1.25297071199 -0.352614402331 0.0
0.773746722719 -1.20998741948 0.0
1.46194417362 -0.0179381718541 0.0
1.19348729684 0.180869529864 0.0
1.2946338817 -0.353098080591 0.0
10.4763470255 16.8981531524 0.0
1.05657402253 0.295401680535 0.0
2.31211114417 0.709842526089 0.0
1.24955484486 0.273875548267 0.0
1.16081912478 0.0563790349414 0.0
-2.92526939982 1.20319339379 0.0
0.857236886107 0.0323055293181 0.0
0.9458453342 0.0789452206329 0.0
1.1291859216 0.366700574648 0.0
1.13356874658 -0.0426145719729 0.0
1.07971709727 0.0863768898324 0.0
1.07915158782 -0.42583550911 0.0
1.07498938648 -0.41657323091 0.0
1.41638012525 -1.03092303141 0.0
1.05871483577 -0.354986118476 0.0
1.43762479091 -0.14714992332 0.0
1.1268066358 -0.0846788660108 0.0
1.12087646267 0.000367206075178 0.0
1.44956973293 0.0339319491552 0.0
1.447152244 -0.246985976537 0.0
1.11820063798 -0.0287472596871 0.0
1.03967464349 0.463683591533 0.0
1.11952551102 0.252785375608 0.0
0.986299514691 0.453096173783 0.0
1.80554029471 14.1914170566 0.0
1.59163013306 -0.733982579596 0.0
-0.68214970669 8.03742438806 0.0
1.14338879116 0.799438921118 0.0
1.15337433246 0.452948706129 0.0
1.00019736771 0.286104387551 0.0
10.2630727264 -5.99080497864 0.0
0.9298347744 -0.725125099464 0.0
-2.89780198637 -10.2675705561 0.0
1.81893685278 2.42096305243 0.0
0.725273775095 -0.196262125672 0.0
0.960034582481 0.979084119522 0.0
1.0624473601 -0.787516569526 0.0
1.58674444724 -0.132294582273 0.0
1.12362249027 0.298609077471 0.0
1.52109626416 -0.245084635404 0.0
0.995890472089 0.193838906325 0.0
1.11721329446 0.117590448482 0.0
1.11987248255 0.118658126848 0.0
0.949553508087 0.0573209558051 0.0
1.2935376182 0.451769492242 0.0
1.17807888515 0.16416566724 0.0
1.2181190725 0.122137883421 0.0
1.34725476121 0.737409342563 0.0
0.928282550767 0.0814781301138 0.0
0.964638240743 0.204556621759 0.0
1.14149317175 0.0623899857184 0.0
1.22380307662 0.457630878628 0.0
0.986689109785 0.382716815105 0.0
0.96693014125 -0.437963909843 0.0
1.23419067673 -0.563828398162 0.0
0.867696905989 0.251735123981 0.0
1.26764905175 -3.9023191662 0.0
1.42862300302 -0.333087435901 0.0
7.79477329542 -13.2939084647 0.0
0.85823169164 -0.162868749393 0.0
1.68061424637 0.0658265198914 0.0
1.00729847027 0.164926897267 0.0
1.01717904194 -0.441054011122 0.0
1.31321146182 -0.652563884432 0.0
1.30624275935 -0.672899687806 0.0
1.00180776526 -0.436593192068 0.0
0.930513590196 -0.213080182558 0.0
0.776165523686 -0.806701945109 0.0
0.931460126437 -0.199293097055 0.0
1.70482831808 -0.464079832841 0.0
2.3347308146 -0.20306674373 0.0
1.2681053816 0.577218402658 0.0
0.925864196638 0.300941834657 0.0
0.97405109678 0.441512907126 0.0
1.23261427921 0.279464062776 0.0
1.35546600048 0.292912575337 0.0
0.930657020607 0.401766793831 0.0
1.52499163638 0.275076004823 0.0
1.12913751865 -0.416611341431 0.0
-23.9001079478 7.06550105902 0.0
1.89640988165 -0.317978300984 0.0
0.599929808806 -0.549021782928 0.0
2.30017939136 -5.70225561429 0.0
1.5429424436 -0.319582749154 0.0
1.01185926607 0.773824405872 0.0
2.73051870228 1.78066567858 0.0
3.83408274523 -4.60920627008 0.0
1.35401587764 -0.616522514002 0.0
0.753034692767 0.300083742291 0.0
2.92657219331 1.01356348872 0.0
1.32353198827 -0.460552333645 0.0
1.22194020587 -0.362182899631 0.0
1.18950148112 -0.371873570763 0.0
1.26471608182 -0.277049576018 0.0
1.26116147285 -0.493856312199 0.0
1.29374520694 -0.330900168859 0.0
7.78469708129 0.0778735570674 0.0
1.26637777254 -0.241741297128 0.0
1.42103260165 -0.0915542845211 0.0
1.39373286257 0.0811764197107 0.0
1.25651927413 0.162345073551 0.0
0.189448786959 0.113082803387 0.0
1.40016728908 -1.81746517333 0.0
4.03263876888 3.25387625836 0.0
0.251374868265 2.46354501112 0.0
1.13424357569 0.121761227167 0.0
1.17642653752 0.325105482089 0.0
7.9011185584 -0.177834069456 0.0
0.824309610442 -0.674299238066 0.0
0.678235018205 0.59767982131 0.0
1.5699814606 -0.113016310038 0.0
0.889984081806 0.110006961341 0.0
1.09328157517 -0.0677316247172 0.0
14.604943533 18.5246998986 0.0
1.00778279565 0.480556184472 0.0
1.0172089491 1.1800058288 0.0
1.05549104056 0.530494824744 0.0
2.53886404881 0.916588135451 0.0
0.597260279305 0.450309807533 0.0
1.40746930864 0.395856975894 0.0
0.952516980742 -0.252342970757 0.0
1.37313897804 -0.63729022591 0.0
1.48413466137 0.632701232063 0.0
1.20212184671 0.0183125964143 0.0
0.848310767009 -0.340930184877 0.0
0.742722485499 -0.146402821631 0.0
1.18279758244 0.659620756785 0.0
0.845793105407 0.134084929425 0.0
1.89772740888 -1.10161089305 0.0
0.928434838114 0.097290921451 0.0
0.874237714313 0.391039054669 0.0
1.38857978001 1.04787630423 0.0
1.09216428825 0.013087884072 0.0
-27.80108679 -4.44173498842 0.0
1.10608371605 -0.454681352924 0.0
1.16282260947 -0.390001112539 0.0
1.6149064049 -1.74942442078 0.0
0.909873545472 -0.426344687965 0.0
1.21084291144 -0.145835163893 0.0
1.14518634608 1.34571709447 0.0
0.901961083151 0.552514923 0.0
1.18842698488 0.347586222773 0.0
1.27952930713 0.391000280033 0.0
0.796381851751 -0.0755533498992 0.0
2.95065185323 -0.657710685306 0.0
0.0786505278472 -3.32217917764 0.0
0.731027245165 0.151661138907 0.0
3.15817743363 -0.585805643309 0.0
-10.8128146722 -2.82977795791 0.0
1.099166676 0.65268232613 0.0
0.925837892627 0.228858421067 0.0
1.64997028349 -0.310542483368 0.0
1.28983361184 0.535384253563 0.0
1.13875514904 -0.348610337708 0.0
1.23189192055 -0.424948775332 0.0
3.22267559762 2.72643552677 0.0
-0.235244577819 0.739353678789 0.0
1.16293951483 -0.41444519334 0.0
1.10442185507 0.281857247081 0.0
1.57039156025 0.61413175967 0.0
21.8608650069 -9.78031888816 0.0
1.03446960849 -0.673387294628 0.0
1.06603966447 0.253735182461 0.0
0.194660378227 -1.12478510862 0.0
1.16708517967 -0.555232157525 0.0
1.1121635131 -0.344378037616 0.0
-20.6455692996 1.94662401495 0.0
1.19793019118 0.163607032373 0.0
1.1986095758 0.0806067324289 0.0
1.46036976732 -0.338922427973 0.0
1.13459541946 -0.147306195002 0.0
1.1560319 -0.172715133149 0.0
1.79981157231 -0.70876125004 0.0
0.66682077561 -0.285277511561 0.0
0.656260537629 0.345490006596 0.0
1.45236562157 0.0587879441714 0.0
-14.2802356684 -1.47709763422 0.0
1.5352262876 0.217194027724 0.0
1.21567898321 0.010532000493 0.0
1.07082349166 0.391045632745 0.0
1.01664116664 0.36952004285 0.0
0.308581851091 -0.412501980178 0.0
1.93306393969 1.05145197644 0.0
0.845566150617 0.0351972681623 0.0
1.04407500553 -0.188826184018 0.0
1.01783197666 0.0238018991831 0.0
1.06586906845 0.113569587048 0.0
1.51591158044 0.196656885447 0.0
1.0676308901 0.00841883402287 0.0
1.02212174229 0.162322104907 0.0
0.958650348864 0.201225417854 0.0
1.32245683939 0.415170494788 0.0
1.20432676957 0.0338323372131 0.0
0.989744409406 0.0752295267585 0.0
1.21212342512 -0.206234406083 0.0
1.54626000273 -0.366325259905 0.0
1.24652842287 -0.548616994659 0.0
1.15390074868 -0.356830585677 0.0
1.49027446829 -1.11000122844 0.0
1.60380959671 0.520573074511 0.0
1.01178154923 0.235890858188 0.0
1.08621837123 0.221989603468 0.0
1.89601716824 0.177202595145 0.0
1.22218607031 0.0272564801728 0.0
0.67145351321 -0.0350165295686 0.0
7.06080924362 5.26718254717 0.0
1.66786720537 -0.870343164606 0.0
1.13247764657 0.284124513868 0.0
1.18454625106 0.362161773616 0.0
1.12130506004 0.18414158348 0.0
1.97268100056 -0.705707154003 0.0
-4.27736793491 5.39315073683 0.0
0.52853410363 0.68580429665 0.0
2.24403955342 0.330205497945 0.0
2.42787037352 -1.06573102291 0.0
21.8767152753 21.398024493 0.0
0.801002982239 0.115470103356 0.0
-0.612018503643 0.25115221379 0.0
0.944925345969 0.635492642041 0.0
0.90755384298 0.648396152008 0.0
0.701035727726 0.00711984185553 0.0
3.26146906027 -0.206267009761 0.0
0.781908448519 -0.024473192219 0.0
15.0665556569 -0.105105341232 0.0
1.05532229936 -0.652393411114 0.0
1.03834210918 -0.647234218673 0.0
0.893724201029 -0.475615295412 0.0
0.548518405751 -1.02186666798 0.0
0.764505060385 -0.022150179551 0.0
-1.47166144724 0.143923373437 0.0
0.569950366065 0.344626848713 0.0
1.44362085835 0.754405012497 0.0
3.63527158383 -0.290449372687 0.0
0.761945974966 -0.0772274639249 0.0

SCALARS scalar1 double
LOOKUP_TABLE default
10.3729440039
-137.508133817
4.58928489369
8.89287269566
-9.77767257377
0.362402656241
7.48046732495
4.96600861082
4.59559994015
4.58125383311
5.27826519882
8.99865896212
14.0652379671
56.2910196352
-120.351129374
208.411157472
8.2916311903
9.9300100586
6.25202047975
4.26360044347
3.87656193722
4.49639566348
5.5731687683
7.8514184585
28.188202856
-57.9232444334
1068.40292474
-853.840988807
111.286774059
9.00459025807
11.6553769082
4.39269574762
4.753475735
4.26724065347
5.03944898641
7.01394910439
10.8079604297
23.1394210644
59.9197650949
-1760.58030723
306.44212729
4.23020809939
10.8468941194
6.20168755517
4.49649884725
4.3586824549
5.29379623662
8.92258474068
16.2704330478
49.9106381271
173.317936813
177.335378941
-268.788194959
52.2180555865
-2.44129821283
0.844000209648
-0.134588775613
1.16025975358
-7.263835097
-5.01740917979
-4.67595970648
-4.78688703258
-5.56216400975
-10.8514112978
-12.5513729307
-189.918612248
62.5387960214
60.7894682266
-102.544557136
-12.5013506183
-10.9977238573
-5.46375433258
-4.65474846887
-4.64383852984
-4.92833814451
-7.3671923114
-15.8415773391
-27.7886116871
-119.668812059
237.200120721
-145.943284694
-14.379673466
-12.2787699552
-5.53436836807
-5.09341179548
-4.65730488082
-4.83870410246
-6.01938370762
-15.4634327774
17.1400813203
-404.534028203
123.866725965
71.9373296013
-74.7715855765
-15.1862209454
-8.61086517407
-5.34020554957
-4.77718131867
-4.46289871159
-4.98064680057
-9.02137457229
-12.1120206742
-42.6705062009
83.9285345639
17.6838835492
119.893950334
-62.4531117115
1.43792450627
0.261063656297
0.419606498096
-1.99113709431
-1.0230583382
2.19600345174
0.476929803948
0.0113394313685
-0.763589893562
0.494080479926
0.769902537363
0.186235242337
2.33684809894
-11.5954655823
0.943119308208
-7.98849665235
33.3656341745
4.37038417872
-27.2156293776
-10.8361751989
3.50619542826
0.138311480032
-24.506449982
-0.820215778927
-3.01361070774
52.2373778763
2.25737268229
0.432786211211
-0.672139224521
1.10698966454
-0.727944812612
-6.30256665592
0.096824202246
-0.10126363685
25.6966688082
1.24910558516
3.56295383839
-2.88503458974
-0.315570546812
-832.004947725
9.3998199697
1.76683865375
-14.7859158126
0.155539180098
1.94962777638
111.940632197
0.32809249913
0.11393290355
-6.10771542183
-0.130394681353
148.772914453
13.3700754594
5.67749416756
-0.521272583198
0.154945442052
-12.3958703646
1.04398654115
0.114404636044
1.95478302992
-0.358767923726
-30.2812573621
0.0503729935716
0.0417770744393
-1.70446530749
16.4394835261
0.03906394794
0.0812057616138
-0.337907392256
-0.902553022997
28.9900970599
-0.533409886768
14.6962623692
-5.66742007144
-1.54042249892
-0.0961859116269
121.644661467
-1.37423514889
46.8184420568
257.812920783
0.153485968972
4.98979630414
343.963143269
6.88005992491
3.93289947778
26.9441630413
0.340134282128
0.483571592488
-0.288813975571
-0.162508526336
-17.7113871059
-0.228807691575
0.26045067498
56.3353676862
0.434022865442
12.0751534353
-0.802237099095
-1.50958963722
0.797333190673
0.639339043962
0.933509565523
0.150675372683
-7.36194153144
-0.513664293744
-120.052329703
-0.428255961655
-165.114236856
-0.205676622247
-1.06332629472
1.27526649711
-9.84952861095
-0.732629533956
-0.312719231158
63.9804058081
-0.458695636744
-29.3338529186
-34.3372040335
11.0884313337
0.320404753135
41.6039126717
-0.261774239956
1.6160572303
0.479426495189
19.3057964733
-0.250884721826
-557.752467305
-33.6677429044
0.658859987665
-175.199028271
3.71633606285
-0.238730057199
-14.2250597694
-9.57017775389
0.136225767604
-1.07716971319
76.5706481383
-2.72334743373
-0.262669367432
0.332818753216
0.370204646914
0.34198623082
1.01637187278
169.187212617
-0.766297912025
-6.50472003568
2.48456680825
0.699927030419
-0.346382193384
2.02743967817
-5.71473642988
-13.180421004
-0.342841866277
-0.588594960488
11628.451972
-0.718576014733
-7.89775891641
101.918339973
0.359699194152
0.312665843561
-779.254777435
-0.149294867376
-3.41403067698
3.44099696519
-386.609848888
-10.2812065488
2.00392438037
-0.0454968750916
17.8866034001
-4.02192116796
0.248580597752
-0.621460428466
-51.2528112947
-19.6673581077
-0.372289000706
2.6464965195
1.6030262983
0.421517739909
0.185366161758
-1.06413478707
-452.311524297
0.135713312216
0.232395055841
-2.61740661057
14.7403244404
-0.0439649999168
-37.208425159
0.448352961605
-0.400424240315
0.0860966000656
-0.171213692159
-2010.08673515
-1.71144779697
0.708460859814
2.62900685652
7.53629783803
-0.123885688832
-1.96898782337
11.8845787542
-0.216187484606
0.256301502596
-0.518738440828
123.236740284
-40.7707310952
-1.26284841701
0.212050481011
-1.77605186284
34.5614349228
1.2530471689
-0.143261713067
-17.2296278257
2.20241676627
0.162612332107
-656.383510175
-7.07540358924
0.172258332374
3.12339691901
1.06068359644
0.280513437553
-4.16374543749
-1.33935434243
-6.11285303455
0.141062599357
21.8505374287
5.18089754012
-0.306673408586
0.829011608342
0.848172098285
127.514075935
-59.8159608082
0.0719073514404
3.85925730791
-14.2125221582
9.04891666878
-13.6437419124
-0.313038094792
2.13627204528
-0.764701120442
124.100686602
0.415724737732
-1.61936079152
-0.61131250314
0.808978828452
-4.69719411456
-0.0241766369171
3.51241075623
-135.659197651
1.00636151867
2.46800136312
-4.96620052379
-0.431115068699
-3.34374566492
17.7802681614
-0.280940777415
-0.213038858864
0.0585699619069
-4.07401933879
-5.1286483836
-12.4937677512
3.45997992842
-3.48928255613
1.12350038454
-139.246641454
-1.67831635178
-28.2403132026
1.0773197456
1.50560360421
-1.74330685055
-101.2067636
1.42995367054
-69.8932868053
-0.200338987358
-1.51752365903
-0.522788901265
7.92088073764
1.49029947585
153.536291436
-0.407817722288
-1.24402142069
-147.586498675
-1.81647684493

SCALARS scalar2 double
LOOKUP_TABLE default
10.3729440039
-137.508133817
4.58928489369
8.89287269566
-9.77767257377
0.362402656241
7.48046732495
4.96600861082
4.59559994015
4.58125383311
5.27826519882
8.99865896212
14.0652379671
56.2910196352
-120.351129374
208.411157472
8.2916311903
9.9300100586
6.25202047975
4.26360044347
3.87656193722
4.49639566348
5.5731687683
7.8514184585
28.188202856
-57.9232444334
1068.40292474
-853.840988807
111.286774059
9.00459025807
11.6553769082
4.39269574762
4.753475735
4.26724065347
5.03944898641
7.01394910439
10.8079604297
23.1394210644
59.9197650949
-1760.58030723
306.44212729
4.23020809939
10.8468941194
6.20168755517
4.49649884725
4.3586824549
5.29379623662
8.92258474068
16.2704330478
49.9106381271
173.317936813
177.335378941
-268.788194959
52.2180555865
-2.44129821283
0.844000209648
-0.134588775613
1.16025975358
-7.263835097
-5.01740917979
-4.67595970648
-4.78688703258
-5.56216400975
-10.8514112978
-12.5513729307
-189.918612248
62.5387960214
60.7894682266
-102.544557136
-12.5013506183
-10.9977238573
-5.46375433258
-4.65474846887
-4.64383852984
-4.92833814451
-7.3671923114
-15.8415773391
-27.7886116871
-119.668812059
237.200120721
-145.943284694
-14.379673466
-12.2787699552
-5.53436836807
-5.09341179548
-4.65730488082
-4.83870410246
-6.01938370762
-15.4634327774
17.1400813203
-404.534028203
123.866725965
71.9373296013
-74.7715855765
-15.1862209454
-8.61086517407
-5.34020554957
-4.77718131867
-4.46289871159
-4.98064680057
-9.02137457229
-12.1120206742
-42.6705062009
83.9285345639
17.6838835492
119.893950334
-62.4531117115
1.43792450627
0.261063656297
0.419606498096
-1.99113709431
-1.0230583382
2.19600345174
0.476929803948
0.0113394313685
-0.763589893562
0.494080479926
0.769902537363
0.186235242337
2.33684809894
-11.5954655823
0.943119308208
-7.98849665235
33.3656341745
4.37038417872
-27.2156293776
-10.8361751989
3.50619542826
0.138311480032
-24.506449982
-0.820215778927
-3.01361070774
52.2373778763
2.25737268229
0.432786211211
-0.672139224521
1.10698966454
-0.727944812612
-6.30256665592
0.096824202246
-0.10126363685
25.6966688082
1.24910558516
3.56295383839
-2.88503458974
-0.315570546812
-832.004947725
9.3998199697
1.76683865375
-14.7859158126
0.155539180098
1.94962777638
111.940632197
0.32809249913
0.11393290355
-6.10771542183
-0.130394681353
148.772914453
13.3700754594
5.67749416756
-0.521272583198
0.154945442052
-12.3958703646
1.04398654115
0.114404636044
1.95478302992
-0.358767923726
-30.2812573621
0.0503729935716
0.0417770744393
-1.70446530749
16.4394835261
0.03906394794
0.0812057616138
-0.337907392256
-0.902553022997
28.9900970599
-0.533409886768
14.6962623692
-5.66742007144
-1.54042249892
-0.0961859116269
121.644661467
-1.37423514889
46.8184420568
257.812920783
0.153485968972
4.98979630414
343.963143269
6.88005992491
3.93289947778
26.9441630413
0.340134282128
0.483571592488
-0.288813975571
-0.162508526336
-17.7113871059
-0.228807691575
0.26045067498
56.3353676862
0.434022865442
12.0751534353
-0.802237099095
-1.50958963722
0.797333190673
0.639339043962
0.933509565523
0.150675372683
-7.36194153144
-0.513664293744
-120.052329703
-0.428255961655
-165.114236856
-0.205676622247
-1.06332629472
1.27526649711
-9.84952861095
-0.732629533956
-0.312719231158
63.9804058081
-0.458695636744
-29.3338529186
-34.3372040335
11.0884313337
0.320404753135
41.6039126717
-0.261774239956
1.6160572303
0.479426495189
19.3057964733
-0.250884721826
-557.752467305
-33.6677429044
0.658859987665
-175.199028271
3.71633606285
-0.238730057199
-14.2250597694
-9.57017775389
0.136225767604
-1.07716971319
76.5706481383