# vtk DataFile Version 2.0
2D Simulation Python
ASCII
DATASET UNSTRUCTURED_GRID
FIELD FieldData 1
NODES 1 2 int
386 659

POINTS 386 double
0.0 1.0 0.0
1.725 1.0 0.0
8.275 1.0 0.0
10.0 1.0 0.0
10.0 0.0 0.0
0.0 0.0 0.0
0.1916666666663293 1.0 0.0
0.3833333333324708 1.0 0.0
0.574999999998553 1.0 0.0
0.7666666666645966 1.0 0.0
0.9583333333312576 1.0 0.0
1.149999999998384 1.0 0.0
1.341666666665662 1.0 0.0
1.533333333332819 1.0 0.0
1.92348484848444 1.0 0.0
2.121969696968978 1.0 0.0
2.320454545453434 1.0 0.0
2.518939393937826 1.0 0.0
2.717424242422235 1.0 0.0
2.915909090906411 1.0 0.0
3.1143939393908 1.0 0.0
3.312878787875129 1.0 0.0
3.511363636359531 1.0 0.0
3.709848484843827 1.0 0.0
3.90833333332816 1.0 0.0
4.106818181812215 1.0 0.0
4.305303030296804 1.0 0.0
4.503787878781365 1.0 0.0
4.702272727265711 1.0 0.0
4.900757575750005 1.0 0.0
5.099242424235156 1.0 0.0
5.297727272720327 1.0 0.0
5.496212121205663 1.0 0.0
5.694696969690998 1.0 0.0
5.89318181817668 1.0 0.0
6.09166666666213 1.0 0.0
6.290151515147423 1.0 0.0
6.488636363633031 1.0 0.0
6.687121212118713 1.0 0.0
6.885606060604342 1.0 0.0
7.084090909089381 1.0 0.0
7.282575757574369 1.0 0.0
7.481060606059355 1.0 0.0
7.679545454544343 1.0 0.0
7.878030303029329 1.0 0.0
8.076515151514705 1.0 0.0
8.46666666666447 1.0 0.0
8.658333333329285 1.0 0.0
8.84999999999549 1.0 0.0
9.041666666661694 1.0 0.0
9.233333333327899 1.0 0.0
9.42499999999549 1.0 0.0
9.616666666663775 1.0 0.0
9.808333333331985 1.0 0.0
10.0 0.7999999999999998 0.0
10.0 0.6000000000013869 0.0
10.0 0.4000000000016644 0.0
10.0 0.2000000000008322 0.0
9.799999999999999 0.0 0.0
9.6 0.0 0.0
9.399999999999999 0.0 0.0
9.2 0.0 0.0
8.999999999999998 0.0 0.0
8.799999999999997 0.0 0.0
8.599999999999998 0.0 0.0
8.399999999999997 0.0 0.0
8.199999999999998 0.0 0.0
7.999999999999997 0.0 0.0
7.799999999999997 0.0 0.0
7.599999999999998 0.0 0.0
7.399999999999997 0.0 0.0
7.199999999999998 0.0 0.0
6.999999999999997 0.0 0.0
6.799999999999997 0.0 0.0
6.599999999999998 0.0 0.0
6.399999999999997 0.0 0.0
6.199999999999998 0.0 0.0
5.999999999999997 0.0 0.0
5.799999999999998 0.0 0.0
5.599999999999998 0.0 0.0
5.399999999999999 0.0 0.0
5.199999999999998 0.0 0.0
4.999999999999999 0.0 0.0
4.799999999999999 0.0 0.0
4.599999999999999 0.0 0.0
4.399999999999999 0.0 0.0
4.199999999999999 0.0 0.0
3.999999999999999 0.0 0.0
3.799999999999999 0.0 0.0
3.599999999999999 0.0 0.0
3.399999999999998 0.0 0.0
3.199999999999998 0.0 0.0
2.999999999999999 0.0 0.0
2.799999999999998 0.0 0.0
2.599999999999998 0.0 0.0
2.399999999999999 0.0 0.0
2.199999999999999 0.0 0.0
1.999999999999998 0.0 0.0
1.799999999999999 0.0 0.0
1.6 0.0 0.0
1.4 0.0 0.0
1.199999999999999 0.0 0.0
0.9999999999999982 0.0 0.0
0.7999999999999989 0.0 0.0
0.6000000000000014 0.0 0.0
0.3999999999999986 0.0 0.0
0.1999999999999993 0.0 0.0
0.0 0.1999999999995579 0.0
0.0 0.3999999999989749 0.0
0.0 0.5999999999989468 0.0
0.0 0.7999999999994734 0.0
0.6587916075316863 0.545768815992228 0.0
9.34120796621565 0.5457682360281532 0.0
8.741570321595514 0.5670432708471075 0.0
1.2584265063976054 0.5670491697684221 0.0
8.163047994545046 0.5722366464170485 0.0
1.8369338034927893 0.5722824220626773 0.0
2.430207419242844 0.5974205205297275 0.0
7.569698170981458 0.5971168945011629 0.0
3.030237245045846 0.6016682387681107 0.0
6.969242207534982 0.5998014779887768 0.0
3.6284121199065584 0.6005188213182814 0.0
6.368153051129697 0.5905893443564098 0.0
4.229196337942718 0.5906931420876299 0.0
5.795226558514475 0.5278257138816709 0.0
4.802352682989577 0.5278368177527855 0.0
5.298804893998525 0.5198961337103344 0.0
9.677473828526391 0.70043015945233 0.0
0.3225260777476271 0.7004302671536473 0.0
4.530377804000327 0.3380059269982078 0.0
3.918607609903324 0.37187460624077645 0.0
6.068083183234726 0.33797068095846045 0.0
3.31917609759231 0.37614409913226143 0.0
6.67983831056203 0.37158137340524566 0.0
7.879178563683121 0.3668899272581931 0.0
2.1207839090518052 0.3670008383366056 0.0
2.719886197875446 0.3751081908287993 0.0
7.279917048661061 0.37438075835070134 0.0
9.03735401092484 0.6722615886531034 0.0
0.9626449487888329 0.6722632126189502 0.0
1.5319341563221718 0.3599348621006344 0.0
8.468058954618465 0.3599194736862424 0.0
8.458449164004094 0.6795600793587215 0.0
1.5415442574599312 0.6795741597959638 0.0
0.9793150437703376 0.3650463061392484 0.0
9.020683751235257 0.3650443188597862 0.0
4.527053252507778 0.6902299770101129 0.0
3.9211928992767984 0.7012784191305008 0.0
6.0698028568556115 0.690201650822363 0.0
2.11817764195275 0.6914719350482269 0.0
7.881788266722477 0.6913756488733606 0.0
3.3231312429091697 0.7045505926456721 0.0
6.675734988106832 0.701041237848948 0.0
2.7251522513930007 0.703607622245895 0.0
7.274661017240242 0.7029791720383881 0.0
0.33281956582732075 0.3035539853270076 0.0
9.667180327282079 0.3035538569677976 0.0
5.581364331715398 0.321282660003158 0.0
5.0171536098956295 0.3212856478315131 0.0
5.509484504733543 0.6939609178529959 0.0
5.087339502092536 0.6939627499325097 0.0
0.6618576249221219 0.7353965105141131 0.0
9.338142063181584 0.7353960976738987 0.0
8.747729947597941 0.739725682401098 0.0
1.2522677468295602 0.7397298737804434 0.0
8.670496285422333 0.2757775320109132 0.0
1.3295004971467235 0.2757840167483912 0.0
0.6803621031417322 0.23678141690629478 0.0
9.319637573337134 0.2367809627681152 0.0
8.170067308630237 0.7444539198471035 0.0
1.8299195668692858 0.7444861224757053 0.0
8.082397314277095 0.27770847479866434 0.0
1.9175844305545569 0.27775793138023175 0.0
7.4853542639324395 0.28498412885054913 0.0
2.5145493983972154 0.28531961159817487 0.0
6.885327993829846 0.2854066334634408 0.0
3.114203204681054 0.28755152885256763 0.0
6.285060740659968 0.270717768034646 0.0
3.713593914825836 0.28587808857359975 0.0
2.4223101514465304 0.8118268827066906 0.0
7.577635434032157 0.8116564823141212 0.0
3.021453727367966 0.8145968080730864 0.0
6.97823463966601 0.8135758648393523 0.0
3.6183099583585823 0.8139967258489967 0.0
6.379576596010832 0.8095726515023323 0.0
4.216763009815664 0.8096321234704239 0.0
5.793641963164449 0.843055803376824 0.0
4.802515459698789 0.8430606635979941 0.0
5.299571306263149 0.18556025002737533 0.0
4.313727307331124 0.27078644803287966 0.0
4.743110959207893 0.2378564063781473 0.0
5.855796454810995 0.23784424493737977 0.0
5.298360386461184 0.7169444947125718 0.0
0.19482381022478565 0.5020794712435518 0.0
9.80517612699186 0.5020794000150486 0.0
9.486983275614232 0.16226650055626762 0.0
0.5130165945355237 0.16226666872389536 0.0
9.568958315705673 0.5120835142200892 0.0
0.43104149495875693 0.5120837474458046 0.0
9.509158488988113 0.8362753699075975 0.0
0.4908413976336486 0.8362755079845665 0.0
9.823691665116556 0.8277110033477133 0.0
0.1763083066031268 0.8277110336049158 0.0
7.690794317278165 0.19235864120987073 0.0
2.309166556651493 0.19248567502402836 0.0
8.876725855933508 0.1916162358677791 0.0
1.1232728978081146 0.19161851050839912 0.0
7.0910008568578675 0.19450427956539493 0.0
2.908804787580174 0.19532880467541436 0.0
6.491176889970042 0.1895387589051493 0.0
3.508392155346681 0.19513847552318045 0.0
1.7132214984761405 0.18788037475495625 0.0
8.28677119617983 0.1878622425140861 0.0
4.108003172845017 0.18964133825053914 0.0
8.577646282559646 0.8283327749985975 0.0
1.4223508993542113 0.8283384583833592 0.0
8.923393407978926 0.8261064852126727 0.0
1.076605644632893 0.826108061508367 0.0
0.841826071369186 0.8247647651714632 0.0
9.158173503714034 0.8247641398281647 0.0
8.3459524253095 0.8294316358326457 0.0
1.6540418686653848 0.8294445616219663 0.0
5.592498410634547 0.5042809213187712 0.0
5.005184359540367 0.5042848397723808 0.0
7.7895204876958495 0.8390698196972315 0.0
2.2104532874238503 0.8391462892248753 0.0
7.7770892079989045 0.5513406484323755 0.0
2.222855988888296 0.55150536146113 0.0
2.8151456353117954 0.8444817509735376 0.0
7.18470715703039 0.8439960389716059 0.0
3.4119199103005378 0.8447015313342405 0.0
6.587136122259331 0.8422498037438556 0.0
4.009082685056338 0.8423531068965784 0.0
5.984892432110783 0.8432180451134625 0.0
4.611267962094591 0.8432292113504196 0.0
7.175395079686125 0.559039733656522 0.0
2.82430924545158 0.5600943806396017 0.0
6.575402427517004 0.5543682958588166 0.0
3.422822978978511 0.5604435170441858 0.0
5.978154994499695 0.5312272532742366 0.0
4.022173524051643 0.554584725494067 0.0
4.619417276671124 0.5312521088743078 0.0
8.549162614927761 0.5401228065397987 0.0
1.450831525191448 0.5401349497737142 0.0
1.0632084662459906 0.5313748615857041 0.0
0.8721847546505697 0.5238004603586328 0.0
8.936789809645136 0.531371965723621 0.0
9.127814340465811 0.5237990869090073 0.0
4.433981584839723 0.5457269205978883 0.0
1.6371387406741376 0.5364018334835188 0.0
8.362850859833594 0.536377988359039 0.0
2.0326510235890454 0.5486631175007067 0.0
7.967316950591092 0.5485746185284451 0.0
3.8305322424128447 0.5631405981227748 0.0
6.16354121454359 0.5456749175594396 0.0
3.2319260904268967 0.5662347296993147 0.0
6.7671069524163014 0.5627424303938213 0.0
2.6329167400789695 0.5643008208274345 0.0
7.366911957507502 0.5637156676109308 0.0
4.42163945043662 0.8396917426276017 0.0
3.8217880044832833 0.843662070628312 0.0
6.17454459521458 0.8396674491473683 0.0
1.9990821491075683 0.8334914404633817 0.0
8.000903126170806 0.8334521928369154 0.0
3.2250065192348316 0.8450108763877643 0.0
6.774477771642008 0.8434719960211378 0.0
2.6277598745307125 0.8439921352091118 0.0
7.37215492653071 0.8437154778486025 0.0
4.921930800480725 0.18324222555759825 0.0
5.677223518350801 0.18323862751076178 0.0
0.16562715925980973 0.15675473454501962 0.0
9.834372809816076 0.15675469970647457 0.0
9.136568550974307 0.18253945636579327 0.0
0.8634309550159672 0.18254024163535523 0.0
9.486990390940077 0.665979914845205 0.0
0.5130093923102574 0.6659801837693191 0.0
1.4802022089433926 0.15809790532569157 0.0
8.519794652813795 0.15809097804322564 0.0
7.9252170538447215 0.1603336408477764 0.0
2.0747655990616765 0.1603845605412165 0.0
6.138074079138383 0.1456765688300683 0.0
4.461266341879858 0.14570184651561446 0.0
[...]
POINT_DATA 386
VECTORS vector double
1.0 0.0 0.0
0.0 0.0 0.0
0.0 0.0 0.0
0.0 0.0 0.0
0.0 0.0 0.0
1.0 0.0 0.0
0.0 0.0 0.0
0.0 0.0 0.0
0.0 0.0 0.0
0.0 0.0 0.0
0.0 0.0 0.0
0.0 0.0 0.0
0.0 0.0 0.0
0.0 0.0 0.0
0.0 0.0 0.0
0.0 0.0 0.0
0.0 0.0 0.0
0.0 0.0 0.0
0.0 0.0 0.0
0.0 0.0 0.0
0.0 0.0 0.0
0.0 0.0 0.0
0.0 0.0 0.0
0.0 0.0 0.0
0.0 0.0 0.0
0.0 0.0 0.0
0.0 0.0 0.0
0.0 0.0 0.0
0.0 0.0 0.0
0.0 0.0 0.0
0.0 0.0 0.0
0.0 0.0 0.0
0.0 0.0 0.0
0.0 0.0 0.0
0.0 0.0 0.0
0.0 0.0 0.0
0.0 0.0 0.0
0.0 0.0 0.0
0.0 0.0 0.0
0.0 0.0 0.0
0.0 0.0 0.0
0.0 0.0 0.0
0.0 0.0 0.0
0.0 0.0 0.0
0.0 0.0 0.0
0.0 0.0 0.0
0.0 0.0 0.0
0.0 0.0 0.0
0.0 0.0 0.0
0.0 0.0 0.0
0.0 0.0 0.0
0.0 0.0 0.0
0.0 0.0 0.0
0.0 0.0 0.0
0.967267202922 0.0911732972834 0.0
1.39343837973 -0.00170919346901 0.0
1.38414620561 -0.00872466442349 0.0
0.961338689886 -0.0887827180232 0.0
0.0 0.0 0.0
0.0 0.0 0.0
0.0 0.0 0.0
0.0 0.0 0.0
0.0 0.0 0.0
0.0 0.0 0.0
0.0 0.0 0.0
0.0 0.0 0.0
0.0 0.0 0.0
0.0 0.0 0.0
0.0 0.0 0.0
0.0 0.0 0.0
0.0 0.0 0.0
0.0 0.0 0.0
0.0 0.0 0.0
0.0 0.0 0.0
0.0 0.0 0.0
0.0 0.0 0.0
0.0 0.0 0.0
0.0 0.0 0.0
0.0 0.0 0.0
0.0 0.0 0.0
0.0 0.0 0.0
0.0 0.0 0.0
0.0 0.0 0.0
0.0 0.0 0.0
0.0 0.0 0.0
0.0 0.0 0.0
0.0 0.0 0.0
0.0 0.0 0.0
0.0 0.0 0.0
0.0 0.0 0.0
0.0 0.0 0.0
0.0 0.0 0.0
0.0 0.0 0.0
0.0 0.0 0.0
0.0 0.0 0.0
0.0 0.0 0.0
0.0 0.0 0.0
0.0 0.0 0.0
0.0 0.0 0.0
0.0 0.0 0.0
0.0 0.0 0.0
0.0 0.0 0.0
0.0 0.0 0.0
0.0 0.0 0.0
0.0 0.0 0.0
0.0 0.0 0.0
0.0 0.0 0.0
1.0 0.0 0.0
1.0 0.0 0.0
1.0 0.0 0.0
1.0 0.0 0.0
1.23793643966 -0.0452118406562 0.0
1.43085657109 -0.0123516265558 0.0
1.4260741258 -0.00664993226009 0.0
1.35201186854 -0.00832802086069 0.0
1.42508065286 -0.00291984237524 0.0
1.39913990332 0.00728763792524 0.0
1.39280797228 0.00482904081547 0.0
1.40282624647 -0.000451877179134 0.0
1.39626005306 0.000623816013532 0.0
1.39827686367 -0.000681707660699 0.0
1.39840867571 -0.000812556305309 0.0
1.39497190794 -0.00711054360959 0.0
1.40404791434 -0.00229001166792 0.0
1.40725985668 0.00210247957885 0.0
1.42738084903 0.0046868126236 0.0
1.4511188795 0.00375102735309 0.0
1.27153559198 0.00147245425403 0.0
1.14253637487 -0.121847095625 0.0
1.27168608912 0.00919615585753 0.0
1.32776383981 0.000639412651137 0.0
1.25391499949 -0.00703351700532 0.0
1.33625623146 0.00280093091273 0.0
1.31770208891 -0.000305751688505 0.0
1.31835063677 -0.00153288184553 0.0
1.3400292915 0.0132461612292 0.0
1.34095674196 0.00572691792136 0.0
1.3257637861 0.000488677617518 0.0
1.32825905428 -0.00733701470585 0.0
1.27008485356 -0.029723280619 0.0
1.33333905769 0.0250998426713 0.0
1.31403820279 -0.00570185881506 0.0
1.32770379758 -0.00491505279334 0.0
1.27979985021 0.00263920112947 0.0
1.30367157036 0.0175400136183 0.0
1.33677441425 -0.012661640636 0.0
1.28788638131 -0.00159119297555 0.0
1.26103592407 0.00309332274037 0.0
1.29003696582 0.00190909842671 0.0
1.2674799064 0.0133639583802 0.0
1.29718993252 -0.00804491113308 0.0
1.25275653334 0.00460529307364 0.0
1.26618765232 -0.00412159045862 0.0
1.24772877186 0.0057690064843 0.0
1.26333008068 0.000287393025106 0.0
1.11173201415 0.0869513261841 0.0
1.26528225086 -0.0116856514906 0.0
1.22351770276 0.00314796534365 0.0
1.23086179945 -0.001915779858 0.0
1.25036687347 0.0312312874954 0.0
1.2546719062 -0.0174340491327 0.0
1.19800933988 -0.0731583007966 0.0
1.20358696475 -0.00747467709824 0.0
1.20092201823 -0.00646774796272 0.0
1.16076604319 -0.0129138208998 0.0
1.15292839938 0.00224294764041 0.0
1.19912261704 0.0157686650169 0.0
1.15671658828 0.0301211743411 0.0
1.10641900763 -0.00887208388461 0.0
1.20203112017 -0.00365112571164 0.0
1.16444348418 0.00173880908509 0.0
1.15243101441 0.00745256684515 0.0
1.18890815518 0.0026470365241 0.0
1.16617432954 0.00838776671197 0.0
1.18730140107 -0.0035717361048 0.0
1.16754660412 0.00832919282545 0.0
1.18246455281 -0.00708105854618 0.0
1.13731927965 0.00360854215127 0.0
1.1744328534 -0.00736968036726 0.0
0.970389276275 -0.00119589923671 0.0
0.99577651308 0.000795521579483 0.0
0.970820070246 0.000632351988601 0.0
0.991376110602 -0.00292146612161 0.0
0.978606343842 0.000579460427493 0.0
1.01745923797 -0.00642338505685 0.0
0.994694838838 -0.00191074282325 0.0
0.920418799811 0.00122686004456 0.0
0.88896583102 0.00187335093089 0.0
0.918939967191 -7.40503057229e-05 0.0
1.14577905293 -0.00306907089221 0.0
0.974655219904 -0.0225530742442 0.0
0.970466687745 0.0207288639702 0.0
1.16252029962 0.0100098083874 0.0
0.992056587922 -0.0107475630174 0.0
1.44147268688 -0.00823638524481 0.0
0.852045098596 -0.000251202035724 0.0
1.05002234402 0.0570911869388 0.0
1.44858735704 -0.00768631335415 0.0
1.11957009913 -0.0251762195633 0.0
0.851157387351 -0.00590230959853 0.0
1.08409671282 -0.08113775642 0.0
0.829627044073 -0.054263484609 0.0
1.19096240899 -0.17683902859 0.0
0.920724344972 -0.00736636028976 0.0
0.946779015334 0.0119312469843 0.0
0.925152637948 -0.012996238477 0.0
1.02510866174 0.0283370128506 0.0
0.92981442768 -0.00787765891121 0.0
0.942803572965 0.00943656345643 0.0
0.917830882498 -0.00925209781781 0.0
0.93758666743 0.0091487116946 0.0
0.964436161236 0.020113859845 0.0
0.908946182033 -0.010030487646 0.0
0.920704575025 0.00977326030483 0.0
0.907149898906 -0.0107572863705 0.0
0.886064691622 0.00327677746115 0.0
0.906114728533 0.00684254192621 0.0
0.919430357825 -0.0270400437828 0.0
0.9655833627 -0.024566391287 0.0
0.903650574687 -0.0146909439579 0.0
0.908099427904 0.00947087659568 0.0
0.880503404284 -0.0115819614225 0.0
1.41063599737 -0.010676067659 0.0
1.42504897081 0.0179217551097 0.0
0.879054121687 -0.00852099523303 0.0
0.853407769005 0.0086668301237 0.0
1.45465795367 0.000535478722031 0.0
1.44625656877 0.00623549410674 0.0
0.852733743228 -3.35887008703e-05 0.0
0.872583075331 0.000291177991818 0.0
0.858436887782 0.000918291602707 0.0
0.887567388952 -0.00585321546686 0.0
0.870028596332 0.00159455941323 0.0
0.921761706865 0.0041765179392 0.0
0.885361143357 -0.0034160609534 0.0
1.44877151217 0.00560418797436 0.0
1.44967442349 -0.00137458267219 0.0
1.44222444078 0.00202177180326 0.0
1.45010324967 -0.0035247299494 0.0
1.4221704299 -0.000991223070074 0.0
1.45108782925 -0.00706416796563 0.0
1.4469462397 0.00424594158741 0.0
1.44843517215 -0.00663901940827 0.0
1.40209689306 0.00942332002482 0.0
1.34754658571 -0.0117076366939 0.0
1.31096425864 -0.0236785011229 0.0
1.45642688009 -0.00902806249951 0.0
1.45086281493 -0.017346719415 0.0
1.43903175264 -7.36907801617e-05 0.0
1.42802756557 0.011007481142 0.0
1.46300034793 -0.0067210490353 0.0
1.4344089573 0.0160449009503 0.0
1.44528757679 -0.00552339467305 0.0
1.43489035908 0.00971915140979 0.0
1.41554839693 -0.0021739263011 0.0
1.43439715122 0.0120517854638 0.0
1.42735427823 -0.010555894151 0.0
1.43334619881 0.0153988206318 0.0
1.43235632618 -0.00732467945723 0.0
0.8756170769 -0.00657600235245 0.0
0.86416237447 0.00308264573449 0.0
0.911891561422 0.00370881860918 0.0
0.878468552816 0.0195968145289 0.0
0.907713749817 -0.0196483061874 0.0
0.854139200567 0.00265803881636 0.0
0.880206539229 -0.00375825671368 0.0
0.850366484732 0.00127151439861 0.0
0.873799726563 0.000953616535874 0.0
0.896508074463 0.0489118628727 0.0
0.897377632109 -0.0509997389947 0.0
1.10818031095 0.143918120764 0.0
0.841347472735 -0.017822372477 0.0
0.90595051061 0.00498044766614 0.0
1.02599457718 0.00588091101239 0.0
1.32447493484 -0.0207474867709 0.0
1.23075197665 -0.110822255097 0.0
0.887888620598 0.00687850969263 0.0
0.815049351054 0.00658652963148 0.0
0.817672394832 0.00923262149503 0.0
0.850389662772 -0.00320110860681 0.0
0.781255702948 0.0213166382364 0.0
0.779953796801 -0.0195966935734 0.0
0.831046574387 0.00952105418599 0.0
0.845354109746 -0.00668870549629 0.0
0.830149292508 0.00810645166062 0.0
0.841870925557 -0.0072284702895 0.0
1.36142430204 -0.00647368061744 0.0
1.33514795669 0.0151529846889 0.0
0.832678296605 -0.00577068846745 0.0
1.36079144511 0.0018600074625 0.0
1.37507265324 0.0135140950543 0.0
0.882497857425 -0.00328671150338 0.0
0.936832383735 0.134877333154 0.0
1.39035894117 0.00299343925052 0.0
1.37438939751 0.00639024982024 0.0
0.921956937807 -0.01849782494 0.0
0.882601143804 0.00218414838133 0.0
1.3885882959 -0.00332181538061 0.0
1.37489923 0.007488503677 0.0
1.35632407861 0.00623952502947 0.0
1.38374537307 -0.00545000974908 0.0
0.897601247763 0.0237512092308 0.0
1.372669492 -0.00855202573102 0.0
1.2959355171 0.0227342584642 0.0
1.31085060972 -0.0218032107713 0.0
1.31549170499 0.00251458400186 0.0
1.26422678366 -0.0142569491625 0.0
1.29679799085 0.00553417942754 0.0
1.285231939 0.00189903546932 0.0
1.2961110023 0.000554489097905 0.0
1.2886867839 -0.00736952470703 0.0
1.26376472278 0.0111560500096 0.0
1.2895577014 -0.00774940806418 0.0
1.27360838103 0.00482622806232 0.0
1.26797947196 0.00624339983349 0.0
1.28192086779 -0.00357150187313 0.0
1.3154845587 -0.0159591012357 0.0
1.26062743829 -0.0168368952776 0.0
1.29577384928 -0.00367318996218 0.0
1.28211602864 0.000208399088505 0.0
1.31620040085 0.00293129444409 0.0
1.27699363212 0.0103157862188 0.0
1.31852325572 -0.0113161118119 0.0
1.2573850331 -0.0625130486086 0.0
1.32186236545 -0.00127698072683 0.0
1.27667855107 -0.00340260891904 0.0
1.29921476424 -0.006193923076 0.0
1.2693758477 -0.00231690243242 0.0
1.28238028458 0.000287249103155 0.0
1.20680622083 0.0413293904286 0.0
1.3357723455 -0.00291869770953 0.0
1.26376299714 -0.0002063543722 0.0
1.28297149622 0.00285771095733 0.0
1.3028245886 -0.00803957691131 0.0
1.30649482878 0.0110958229672 0.0
0.948250049989 -0.123372026797 0.0
1.30883190977 -0.0112780501018 0.0
1.31341023453 0.0206522062824 0.0
1.44740433017 0.00148195338862 0.0
1.44087259748 0.010599870626 0.0
1.28632151757 0.000338458175794 0.0
0.994805943162 0.0804925825252 0.0
0.72273618973 -0.0100536064533 0.0
1.07930913397 0.123573471086 0.0
1.03491987431 -0.0990027943918 0.0
1.31145019819 -0.00663937898465 0.0
1.33489791898 -0.00950030188249 0.0
1.24917358634 0.0187172445679 0.0
1.40812232915 -0.0166152142022 0.0
1.37578379458 0.0311439225218 0.0
0.831992961486 0.0689957794553 0.0
0.74065001984 0.0292968794246 0.0
1.17641630157 -0.155814315081 0.0
0.828457951532 -0.0669582982049 0.0
1.40693260127 -0.0132654275086 0.0
1.41208003718 0.0263909664863 0.0
0.64510266856 0.02166937234 0.0
0.679886278202 0.00961225688245 0.0
0.646281650626 -0.0223043548909 0.0
1.427902996 0.0196288905263 0.0
1.41755607671 -0.0114826915126 0.0
1.38849747832 -0.00672486361467 0.0
1.36572873626 0.00794367890867 0.0
1.42672252659 0.0148864733935 0.0
1.41424126345 -0.0117135319734 0.0
1.42299998752 0.0130926944462 0.0
1.39444854416 -0.00532808513828 0.0
0.6855116941 0.00875198434239 0.0
0.676406231079 -0.0090946178484 0.0
1.41671672239 0.00428126329301 0.0
0.687988778287 0.00945111393115 0.0
0.67306287769 -0.00744662284809 0.0
0.699391702427 0.0150492511034 0.0
0.661094259014 -0.00794898280584 0.0
0.831747057162 -0.0269842672404 0.0
0.690633125912 -0.0212607629018 0.0
0.714672594695 -0.000817597231203 0.0
0.717254540315 -0.0103404552691 0.0
0.771679251276 0.0383271450654 0.0
0.675702636909 -0.0208318481471 0.0
0.712545369777 0.00436226676398 0.0
0.689448561717 -0.00561657083417 0.0
0.602205607267 0.0284064914313 0.0
1.23265284122 -0.0899075458448 0.0
0.799848939995 -0.00049799359611 0.0
0.635073480642 0.0234857155737 0.0

SCALARS scalar1 double
LOOKUP_TABLE default
3.48296453447
5.87159263452
6.0738182149
6.27210206709
-5.73955869322
-2.40395226348
11.4127705802
10.119958728
7.64850432495
6.77950768301
6.11744021528
6.08346888255
6.03068648628
5.68484034568
6.04525318084
5.79909038857
5.81460207605
5.91895322201
6.00914865775
5.98395036971
5.97311962767
6.07671119843
6.02717515982
6.00860395037
6.0930782607
6.02359661456
5.90724265
6.19705013461
6.41356899467
6.22260624756
7.82878229393
4.7538300938
8.01570710657
6.51544034438
6.7467181279
6.55990937742
6.15447357454
6.18244041995
6.24127094273
6.10658603986
6.1107226027
6.18033123256
6.09228497833
5.99693521187
5.99995161499
6.25929793578
5.82926007926
6.05711963959
5.98183985235
5.70132482547
5.80422826802
5.72799112566
6.30213526185
6.00261264745
3.2606733658
0.993052519843
-0.969221583806
-3.15012421175
-6.08454299114
-6.20317704351
-5.7171050148
-5.37941014682
-5.58636037451
-5.42495331199
-5.93369573562
-5.60927323529
-5.4301847417
-5.75109998192
-5.57614210845
-5.3916201643
-5.74382223104
-5.58465491071
-5.39660617986
-5.7719878543
-5.68516336264
-5.4000860866
-5.73359286033
-6.99387172868
-4.76237760458
-5.75657343743
-5.64358532486
-5.636900685
-5.73377058881
-4.73359825065
-6.92700337549
-5.69679405669
-5.38885607697
-5.68561684701
-5.77457771537
-5.41903008033
-5.62152297102
-5.78515103609
-5.44129896326
-5.65538108048
-5.83876099093
-5.53371628134
-5.78955258293
-6.05173822341
-5.79809084367
-6.1311338423
-6.77024681989
-6.25467990162
-6.57377395364
-6.70312710347
-7.48752816199
-9.59731142284
-10.5892941205
2.53056749627
-0.0909605837925
-0.00544189853693
-3.4471010749
-0.202180917555
0.335692062341
0.461524339272
0.448100029414
0.465329034372
0.643244877591
0.849362738975
0.69861167697
0.841739920267
0.723475259573
0.792203041518
0.554002499463
0.680469861781
0.00467768107636
0.039184081142
-0.0466148487985
2.08485084949
-1.12244345114
-1.75302917383
-1.42969787028
-1.6110293685
-1.3866030527
-1.37180223792
-1.49750220319
-1.35209780714
-1.3750616182
-1.40097193834
1.67240367221
1.06175050158
-1.10247944183
-1.55313152378
1.70418122476
1.65215834215
-0.320519097587
-1.4580451914
1.81210972084
1.93199780626
1.45542487108
1.87255924852
1.80700350889
1.99013504158
1.84889686871
2.00139527567
1.91611173394
0.742753953595
-1.98969909025
-1.82886115567
-1.86941453497
1.52106999283
1.69319261869
1.21872036369
2.47005383645
2.48646646122
2.2252182397
-2.44676200651
-1.9260467855
-1.79041884555
-2.78475576335
2.51019949254
2.48721190812
-2.43497157927
-2.31846356426
-2.34353143586
-2.3326480809
-2.30384597172
-2.31284460531
-2.38408630884
-2.32120130116
3.35385508892
3.36648935203
3.41776057228
3.38340951916
3.40917014813
3.23264241171
3.34131884891
3.71906509752
3.86766317941
-3.28266988765
-2.47859036201
-2.77293436471
-2.63354286512
1.85874032445
-0.0879755860417
-0.0200696594729
-3.7059022635
-2.95500758598
0.0464614397364
-0.197300053746
3.79434374104
3.09574962538
3.79622348274
-0.748931026482
-3.33008158548
-3.42299246571
-3.36092201763
-2.94819503471
-3.29232572125
-3.35899978114
-3.30558149094
-3.33358411655
-3.43533926874
-3.39633682677
-3.39231863212
3.68622019049
3.52285946154
3.64497512072
3.41395988403
3.31481613392
3.62129587462
3.70320911011
3.56313737438
-0.177169903726
-0.204132152498
3.77688694431
3.70525193943
0.250272755471
0.413723261153
3.83365911794
3.85126319858
3.8513424036
3.78631944323
3.81388223227
3.75401137439
3.87720188405
0.325415794507
0.42960472496
0.248323338013
0.390915803445
0.0188068609628
0.313176866586
0.0898601162933
0.170096107282
0.34184752396
0.104775772385
-0.0383364584228
0.131705358161
0.0818940217207
0.246152446396
0.310957555824
0.12585792595
0.413285221475
0.218016827529
0.407960948804
0.134720165404
0.46742741511
0.346242874201
0.49429896435
0.364898729644
3.78446030068
3.83806037365
3.6817592485
3.657054737
3.75007648915
3.85638739828
3.81670191101
3.8201416998
3.84241291458
-3.28503418667
-3.21257206024
0.0165403017522
-3.86476059079
-3.43844601299
-2.95213323875
1.68791057862
-0.598850037664
-3.80933185316
-3.78248919497
-3.72871917247
-3.81850877091
-3.88268185498
-3.88825499488
-3.67733519561
-3.72747189161
-3.68347306062
-3.6825150451
-1.21403453595
-0.367684934719
-3.69548033783
-1.2375051958
-0.886943558818
-3.36388315604
3.78110387656
-0.98466143937
-1.12141408664
3.70869953549
-3.37388575888
-1.00917921946
-1.05602117576
-1.09284653912
-1.03409682273
3.88717601196
-1.12246848145
-1.43728780963
-1.48161987424
1.58808756443
1.53560531671
1.71142750171
1.87811427716
1.42220794137
1.91762961995
1.92019979727
1.85926025714
1.95227160124
1.97954620775
1.97540805447
1.62644027952
1.14113449696
1.91069267061
1.75383492942
1.62970249056
1.59262251501
1.63547349585
0.756210120938
1.53052386882
2.02213559687
1.54955257872
2.06544291515
1.86979319793
0.248746199017
-1.46624484071
2.0571454197
1.89112734747
-1.26922779035
-1.3262153136
3.62726522968
1.40240098703
1.59727306794
0.354168471515
0.337576099563
-1.87464347428
1.13665531001
-4.33036561523
-3.48060135045
-1.6003221947
1.93316890086
-1.3736232214
-0.0355205210688
-0.889466138135
-0.299699850368
-3.78432608649
4.34075787585
3.71757412787
-3.9230404388
-0.87096557638
-0.611848030403
-4.15647041244
-4.07391090118
-4.13906109932
-0.635254197579
-0.733859634536
-1.15035014643
-1.09358444114
-0.661697793492
-0.695759252607
-0.701404297501
-0.828859628614
-4.08706808757
-4.08561621913
-0.854066884694
-4.15193923387
-4.08935171105
-4.27271840601
-4.14440461894
4.4095620917
4.33394279547
4.40103753791
4.26026537363
-4.27080708371
-4.18118284808
4.48744376204
4.32215603156
4.81896331564
1.11669812864
-4.30831542369
-4.22366448216

SCALARS scalar2 double
LOOKUP_TABLE default
3.48296453447
5.87159263452
6.0738182149
6.27210206709
-5.73955869322
-2.40395226348
11.4127705802
10.119958728
7.64850432495
6.77950768301
6.11744021528
6.08346888255
6.03068648628
5.68484034568
6.04525318084
5.79909038857
5.81460207605
5.91895322201
6.00914865775
5.98395036971
5.97311962767
6.07671119843
6.02717515982
6.00860395037
6.0930782607
6.02359661456
5.90724265
6.19705013461
6.41356899467
6.22260624756
7.82878229393
4.7538300938
8.01570710657
6.51544034438
6.7467181279
6.55990937742
6.15447357454
6.18244041995
6.24127094273
6.10658603986
6.1107226027
6.18033123256
6.09228497833
5.99693521187
5.99995161499
6.25929793578
5.82926007926
6.05711963959
5.98183985235
5.70132482547
5.80422826802
5.72799112566
6.30213526185
6.00261264745
3.2606733658
0.993052519843
-0.969221583806
-3.15012421175
-6.08454299114
-6.20317704351
-5.7171050148
-5.37941014682
-5.58636037451
-5.42495331199
-5.93369573562
-5.60927323529
-5.4301847417
-5.75109998192
-5.57614210845
-5.3916201643
-5.74382223104
-5.58465491071
-5.39660617986
-5.7719878543
-5.68516336264
-5.4000860866
-5.73359286033
-6.99387172868
-4.76237760458
-5.75657343743
-5.64358532486
-5.636900685
-5.73377058881
-4.73359825065
-6.92700337549
-5.69679405669
-5.38885607697
-5.68561684701
-5.77457771537
-5.41903008033
-5.62152297102
-5.78515103609
-5.44129896326
-5.65538108048
-5.83876099093
-5.53371628134
-5.78955258293
-6.05173822341
-5.79809084367
-6.1311338423
-6.77024681989
-6.25467990162
-6.57377395364
-6.70312710347
-7.48752816199
-9.59731142284
-10.5892941205
2.53056749627
-0.0909605837925
-0.00544189853693
-3.4471010749
-0.202180917555
0.335692062341
0.461524339272
0.448100029414
0.465329034372
0.643244877591
0.849362738975
0.69861167697
0.841739920267
0.723475259573
0.792203041518
0.554002499463
0.680469861781
0.00467768107636
0.039184081142
-0.0466148487985
2.08485084949
-1.12244345114
-1.75302917383
-1.42969787028
-1.6110293685
-1.3866030527
-1.37180223792
-1.49750220319
-1.35209780714
-1.3750616182
-1.40097193834
1.67240367221
1.06175050158
-1.10247944183
-1.55313152378
1.70418122476
1.65215834215
-0.320519097587
-1.4580451914
1.81210972084
1.93199780626
1.45542487108
1.87255924852
1.80700350889
1.99013504158
1.84889686871
2.00139527567
1.91611173394
0.742753953595
-1.98969909025
-1.82886115567
-1.86941453497
1.52106999283
1.69319261869
1.21872036369
2.47005383645
2.48646646122
2.2252182397
-2.44676200651
-1.9260467855
-1.79041884555
-2.78475576335
2.51019949254
2.48721190812
-2.43497157927
-2.31846356426
-2.34353143586
-2.3326480809
-2.30384597172
-2.31284460531
-2.38408630884
-2.32120130116
3.35385508892
3.36648935203
3.41776057228
3.38340951916
3.40917014813
3.23264241171
3.34131884891
3.71906509752
3.86766317941
-3.28266988765
-2.47859036201
-2.77293436471
-2.63354286512
1.85874032445
-0.0879755860417
-0.0200696594729
-3.7059022635
-2.95500758598
0.0464614397364
-0.197300053746
3.79434374104
3.09574962538
3.79622348274
-0.748931026482
-3.33008158548
-3.42299246571
-3.36092201763
-2.94819503471
-3.29232572125
-3.35899978114
-3.30558149094
-3.33358411655
-3.43533926874
-3.39633682677
-3.39231863212
3.68622019049