# vtk DataFile Version 2.0
2D Simulation Python
ASCII
DATASET UNSTRUCTURED_GRID
FIELD FieldData 1
NODES 1 2 int
386 659

POINTS 386 double
0.0 1.0 0.0
1.725 1.0 0.0
8.275 1.0 0.0
10.0 1.0 0.0
10.0 0.0 0.0
0.0 0.0 0.0
0.1916666666663293 1.0 0.0
0.3833333333324708 1.0 0.0
0.574999999998553 1.0 0.0
0.7666666666645966 1.0 0.0
0.9583333333312576 1.0 0.0
1.149999999998384 1.0 0.0
1.341666666665662 1.0 0.0
1.533333333332819 1.0 0.0
1.92348484848444 1.0 0.0
2.121969696968978 1.0 0.0
2.320454545453434 1.0 0.0
2.518939393937826 1.0 0.0
2.717424242422235 1.0 0.0
2.915909090906411 1.0 0.0
3.1143939393908 1.0 0.0
3.312878787875129 1.0 0.0
3.511363636359531 1.0 0.0
3.709848484843827 1.0 0.0
3.90833333332816 1.0 0.0
4.106818181812215 1.0 0.0
4.305303030296804 1.0 0.0
4.503787878781365 1.0 0.0
4.702272727265711 1.0 0.0
4.900757575750005 1.0 0.0
5.099242424235156 1.0 0.0
5.297727272720327 1.0 0.0
5.496212121205663 1.0 0.0
5.694696969690998 1.0 0.0
5.89318181817668 1.0 0.0
6.09166666666213 1.0 0.0
6.290151515147423 1.0 0.0
6.488636363633031 1.0 0.0
6.687121212118713 1.0 0.0
6.885606060604342 1.0 0.0
7.084090909089381 1.0 0.0
7.282575757574369 1.0 0.0
7.481060606059355 1.0 0.0
7.679545454544343 1.0 0.0
7.878030303029329 1.0 0.0
8.076515151514705 1.0 0.0
8.46666666666447 1.0 0.0
8.658333333329285 1.0 0.0
8.84999999999549 1.0 0.0
9.041666666661694 1.0 0.0
9.233333333327899 1.0 0.0
9.42499999999549 1.0 0.0
9.616666666663775 1.0 0.0
9.808333333331985 1.0 0.0
10.0 0.7999999999999998 0.0
10.0 0.6000000000013869 0.0
10.0 0.4000000000016644 0.0
10.0 0.2000000000008322 0.0
9.799999999999999 0.0 0.0
9.6 0.0 0.0
9.399999999999999 0.0 0.0
9.2 0.0 0.0
8.999999999999998 0.0 0.0
8.799999999999997 0.0 0.0
8.599999999999998 0.0 0.0
8.399999999999997 0.0 0.0
8.199999999999998 0.0 0.0
7.999999999999997 0.0 0.0
7.799999999999997 0.0 0.0
7.599999999999998 0.0 0.0
7.399999999999997 0.0 0.0
7.199999999999998 0.0 0.0
6.999999999999997 0.0 0.0
6.799999999999997 0.0 0.0
6.599999999999998 0.0 0.0
6.399999999999997 0.0 0.0
6.199999999999998 0.0 0.0
5.999999999999997 0.0 0.0
5.799999999999998 0.0 0.0
5.599999999999998 0.0 0.0
5.399999999999999 0.0 0.0
5.199999999999998 0.0 0.0
4.999999999999999 0.0 0.0
4.799999999999999 0.0 0.0
4.599999999999999 0.0 0.0
4.399999999999999 0.0 0.0
4.199999999999999 0.0 0.0
3.999999999999999 0.0 0.0
3.799999999999999 0.0 0.0
3.599999999999999 0.0 0.0
3.399999999999998 0.0 0.0
3.199999999999998 0.0 0.0
2.999999999999999 0.0 0.0
2.799999999999998 0.0 0.0
2.599999999999998 0.0 0.0
2.399999999999999 0.0 0.0
2.199999999999999 0.0 0.0
1.999999999999998 0.0 0.0
1.799999999999999 0.0 0.0
1.6 0.0 0.0
1.4 0.0 0.0
1.199999999999999 0.0 0.0
0.9999999999999982 0.0 0.0
0.7999999999999989 0.0 0.0
0.6000000000000014 0.0 0.0
0.3999999999999986 0.0 0.0
0.1999999999999993 0.0 0.0
0.0 0.1999999999995579 0.0
0.0 0.3999999999989749 0.0
0.0 0.5999999999989468 0.0
0.0 0.7999999999994734 0.0
0.658763056834341 0.5456261441108327 0.0
9.341236643655877 0.5456258502463611 0.0
8.741664046726271 0.5667426076067946 0.0
1.2583332297813277 0.566746474465989 0.0
8.163207460616551 0.571828186998106 0.0
1.8367745560498057 0.571864656212435 0.0
2.430021202309297 0.5969709144903335 0.0
7.569879589737795 0.5966964876116682 0.0
3.0300268925996074 0.6011939559839261 0.0
6.969428748701638 0.5993954637615637 0.0
3.6281963345409443 0.6000743190520121 0.0
6.368306255805546 0.590253590481167 0.0
4.229015502066075 0.5903373895067198 0.0
5.795312075542254 0.5275548005952443 0.0
4.802239727061337 0.5275567984296928 0.0
5.298792202996548 0.5196687515996927 0.0
9.677482058199647 0.7003759376465613 0.0
0.32251788368074324 0.7003759836850704 0.0
4.530246031681319 0.33773262722604547 0.0
3.9184203539368294 0.37150100251615026 0.0
6.068191238008214 0.3377097151222505 0.0
3.3189783939521047 0.37571598465021294 0.0
6.679999371238081 0.3712346960911442 0.0
7.879332056231426 0.3665173755902692 0.0
2.1206292383638683 0.3666132146073662 0.0
2.7197048534643438 0.3746832370677098 0.0
7.280087695049308 0.37399756568590947 0.0
9.037404855828221 0.6720630923496369 0.0
0.9625943397469684 0.6720640193151134 0.0
1.5318257851704369 0.3596232109188635 0.0
8.468167750250256 0.3596117849031084 0.0
8.458562953859783 0.6792405494988247 0.0
1.5414309595209768 0.6792507183023403 0.0
0.9792630671534586 0.36484618104758026 0.0
9.020735971478333 0.36484499078132454 0.0
4.526922224520964 0.6899580940684056 0.0
3.921010009350267 0.7009160604369316 0.0
6.0699100198230465 0.6899416633928418 0.0
2.1180221670406856 0.6910831058657768 0.0
7.881942841569705 0.6910012846606113 0.0
3.322937991264082 0.7041331858813294 0.0
6.675892413862193 0.7007041966810982 0.0
2.724975013104947 0.7031923976965674 0.0
7.274828129187539 0.702604900684871 0.0
0.332810767588978 0.3034983155008226 0.0
9.667189163984062 0.3034982578280683 0.0
5.5814021740324185 0.3210778491711153 0.0
5.017093644614605 0.32107651497169687 0.0
5.509510138271774 0.6937664545499312 0.0
5.087292579414506 0.6937651075791129 0.0
0.6618356883335103 0.735284660280154 0.0
9.338164096454957 0.7352844568858895 0.0
8.747801783030113 0.7394942305059288 0.0
1.2521962584082333 0.7394969301482912 0.0
8.670571817752164 0.27554473643723587 0.0
1.3294253096564201 0.2755492413505528 0.0
0.6803415520024468 0.23667929334350774 0.0
9.31965821628996 0.2366790556797333 0.0
8.170190246057707 0.7441389251803177 0.0
1.829796866888313 0.7441642494092585 0.0
8.082518703855252 0.27740255292081123 0.0
1.9174629001912127 0.27744347556610494 0.0
7.4854979758626445 0.28465410067187447 0.0
2.5144005071456395 0.2849631141343894 0.0
6.8854729692067265 0.2850922470664787 0.0
3.1140360434995733 0.287178753321851 0.0
6.285173957003809 0.2704655559902746 0.0
3.7134259917788337 0.2855352736660669 0.0
2.422199423471835 0.8115593656974668 0.0
7.577743435378812 0.8114060675039035 0.0
3.021328883837082 0.8143151118502099 0.0
6.978345579337794 0.8133344804978366 0.0
3.618181671220091 0.8137324862360298 0.0
6.379667998878852 0.8093727069070566 0.0
4.216655170037777 0.8094203151033231 0.0
5.793682339814806 0.8429271229389774 0.0
4.8024620148270305 0.8429277042309649 0.0
5.2995646907859255 0.18544085167215296 0.0
4.3135928598987165 0.27051987438896663 0.0
4.743026712771694 0.23766181331678532 0.0
5.855862309459746 0.23765677951628575 0.0
5.298350748086371 0.7167709081192255 0.0
0.1948182487527163 0.5020411799388819 0.0
9.805181712731393 0.5020411498636907 0.0
9.48699286025305 0.16221280187437118 0.0
0.5130070519077745 0.16221288347229862 0.0
9.568973424217415 0.5119942020126022 0.0
0.43102645211077284 0.511994309387002 0.0
9.509167695836357 0.8362214442254101 0.0
0.4908322306070013 0.8362215068840819 0.0
9.823694347611855 0.8276908394676734 0.0
0.17630563580433878 0.8276908514067741 0.0
7.6908907304576415 0.19213118900109008 0.0
2.3090683144565496 0.19224510633619152 0.0
8.876766568642589 0.19147637249539673 0.0
1.1232323767481374 0.19147784607913226 0.0
7.091103721184859 0.19427745583388908 0.0
2.908691623105028 0.1950695687124714 0.0
6.491266520608812 0.1893445133812891 0.0
3.5082730636394888 0.19488786658274485 0.0
1.7131468994924406 0.18767792723646787 0.0
8.286845953248589 0.18766361131345594 0.0
4.107898177281067 0.18943394304488467 0.0
8.577707812702391 0.8281510274263346 0.0
1.4222896551457382 0.8281549741961098 0.0
8.923432110124217 0.8259682330500544 0.0
1.0765671263843188 0.8259691809626901 0.0
0.8418021409494378 0.824661088431898 0.0
9.158197543181144 0.8246607488468651 0.0
8.346029109814978 0.829225371283937 0.0
1.6539654653514215 0.8292350570993529 0.0
5.592544847319747 0.5040401783662506 0.0
5.005112045198772 0.5040388308217657 0.0
7.789613355175158 0.8388479931775901 0.0
2.21035947757527 0.8389142543156297 0.0
7.777269864137981 0.5509098776552502 0.0
2.2226732122780803 0.5510538759916248 0.0
2.8150390403155168 0.8442346557838585 0.0
7.184806147449756 0.8437764557953196 0.0
3.41180549753924 0.8444580145932357 0.0
6.587226088903434 0.8420569912783166 0.0
4.008977823966299 0.8421468458212151 0.0
5.98494767050758 0.8430754807073323 0.0
4.61119918465791 0.8430806777938922 0.0
7.175589512191561 0.5586083558456211 0.0
2.8240993089505997 0.5596082865168103 0.0
6.575578533227432 0.553989862700232 0.0
3.4225980822689728 0.5599649540988392 0.0
5.978268871988641 0.5309332567081313 0.0
4.021968122317911 0.5541796526750468 0.0
4.619275526467537 0.5309457032409614 0.0
8.549281344778072 0.5397758526524266 0.0
1.4507133308114006 0.5397844399583567 0.0
1.06313889948997 0.5311210886446122 0.0
0.8721370035614479 0.5235998071576684 0.0
8.936859706473202 0.5311193316565491 0.0
9.127862310794914 0.5235990402857563 0.0
4.433815303732105 0.5453913602246682 0.0
1.636999324052737 0.5360162037063483 0.0
8.362990773500144 0.5359982149545199 0.0
2.0324751636627467 0.5482175095190259 0.0
7.967492245064403 0.5481433215669286 0.0
3.830313086615586 0.5627010908487479 0.0
6.163679294397461 0.5453554550834921 0.0
3.2317010117077807 0.565741391950986 0.0
6.767295952650242 0.5623360723618861 0.0
2.6327130004548525 0.5638188282357712 0.0
7.3671063373623555 0.563275641442048 0.0
4.421556081990608 0.8395236412103879 0.0
3.821677554155994 0.8434411005954474 0.0
6.174613789525639 0.8395073299826531 0.0
1.9989907415818429 0.8332587271759684 0.0
8.000994382074904 0.8332263381169465 0.0
3.2248931072625466 0.844762458705707 0.0
6.774573059261275 0.8432675139891334 0.0
2.627657165597831 0.8437491207713882 0.0
7.372253017288616 0.8434935797491344 0.0
4.9218825790697815 0.18310290429711934 0.0
5.677257488949089 0.18310301091370024 0.0
0.1656244058517058 0.15673524523939766 0.0
9.834375575294805 0.15673523062237965 0.0
9.136592508443421 0.18243921895485518 0.0
0.8634071074342723 0.18243967667758365 0.0
9.487007509210136 0.6658820801823427 0.0
0.5129923482836846 0.6658822046519068 0.0
1.4801490725291175 0.1579419372759198 0.0
8.519848003605455 0.15793683137982886 0.0
7.925295372832904 0.16014181670573766 0.0
2.074686800766916 0.16018557280773282 0.0
6.138134835256129 0.14553666436498577 0.0
4.461193307535233 0.1455547529616496 0.0
[...]
POINT_DATA 386
VECTORS vector double
1.0 0.0 0.0
0.0 0.0 0.0
0.0 0.0 0.0
0.0 0.0 0.0
0.0 0.0 0.0
1.0 0.0 0.0
0.0 0.0 0.0
0.0 0.0 0.0
0.0 0.0 0.0
0.0 0.0 0.0
0.0 0.0 0.0
0.0 0.0 0.0
0.0 0.0 0.0
0.0 0.0 0.0
0.0 0.0 0.0
0.0 0.0 0.0
0.0 0.0 0.0
0.0 0.0 0.0
0.0 0.0 0.0
0.0 0.0 0.0
0.0 0.0 0.0
0.0 0.0 0.0
0.0 0.0 0.0
0.0 0.0 0.0
0.0 0.0 0.0
0.0 0.0 0.0
0.0 0.0 0.0
0.0 0.0 0.0
0.0 0.0 0.0
0.0 0.0 0.0
0.0 0.0 0.0
0.0 0.0 0.0
0.0 0.0 0.0
0.0 0.0 0.0
0.0 0.0 0.0
0.0 0.0 0.0
0.0 0.0 0.0
0.0 0.0 0.0
0.0 0.0 0.0
0.0 0.0 0.0
0.0 0.0 0.0
0.0 0.0 0.0
0.0 0.0 0.0
0.0 0.0 0.0
0.0 0.0 0.0
0.0 0.0 0.0
0.0 0.0 0.0
0.0 0.0 0.0
0.0 0.0 0.0
0.0 0.0 0.0
0.0 0.0 0.0
0.0 0.0 0.0
0.0 0.0 0.0
0.0 0.0 0.0
0.969910121472 0.090555391765 0.0
1.38260331956 -0.00172427167113 0.0
1.37552799729 -0.00817635057581 0.0
0.971151082611 -0.0882035317054 0.0
0.0 0.0 0.0
0.0 0.0 0.0
0.0 0.0 0.0
0.0 0.0 0.0
0.0 0.0 0.0
0.0 0.0 0.0
0.0 0.0 0.0
0.0 0.0 0.0
0.0 0.0 0.0
0.0 0.0 0.0
0.0 0.0 0.0
0.0 0.0 0.0
0.0 0.0 0.0
0.0 0.0 0.0
0.0 0.0 0.0
0.0 0.0 0.0
0.0 0.0 0.0
0.0 0.0 0.0
0.0 0.0 0.0
0.0 0.0 0.0
0.0 0.0 0.0
0.0 0.0 0.0
0.0 0.0 0.0
0.0 0.0 0.0
0.0 0.0 0.0
0.0 0.0 0.0
0.0 0.0 0.0
0.0 0.0 0.0
0.0 0.0 0.0
0.0 0.0 0.0
0.0 0.0 0.0
0.0 0.0 0.0
0.0 0.0 0.0
0.0 0.0 0.0
0.0 0.0 0.0
0.0 0.0 0.0
0.0 0.0 0.0
0.0 0.0 0.0
0.0 0.0 0.0
0.0 0.0 0.0
0.0 0.0 0.0
0.0 0.0 0.0
0.0 0.0 0.0
0.0 0.0 0.0
0.0 0.0 0.0
0.0 0.0 0.0
0.0 0.0 0.0
0.0 0.0 0.0
0.0 0.0 0.0
1.0 0.0 0.0
1.0 0.0 0.0
1.0 0.0 0.0
1.0 0.0 0.0
1.23772756864 -0.0449876442589 0.0
1.41653102331 -0.0145456750273 0.0
1.41419720318 -0.00897564031949 0.0
1.34964489164 -0.00685611711028 0.0
1.4136614421 -0.00477035409044 0.0
1.39274311852 0.00985428005934 0.0
1.38599972891 0.00541920844184 0.0
1.39360099935 -0.00174283956171 0.0
1.38813451841 0.000904090790943 0.0
1.38896364122 0.000588417860339 0.0
1.38947295395 -0.00133853202705 0.0
1.38343749871 -0.00631940820979 0.0
1.39383712605 -0.00322945171431 0.0
1.38888654998 0.000527042904948 0.0
1.41075393325 0.00580364670467 0.0
1.43069259994 0.00044344854802 0.0
1.26678063613 0.00105527251316 0.0
1.14263179769 -0.121617339132 0.0
1.26237832145 0.00962933040232 0.0
1.31664243115 0.000580721266055 0.0
1.24741644444 -0.0054466261124 0.0
1.32476177478 0.00328761110306 0.0
1.30836425953 0.00112181439789 0.0
1.30732394828 -0.00269739596448 0.0
1.3314638579 0.0139591408166 0.0
1.33046495716 0.00606538497536 0.0
1.31349083868 0.000508302402148 0.0
1.3241050425 -0.00882799788648 0.0
1.270039261 -0.0289514354944 0.0
1.32934741733 0.0255552409592 0.0
1.30547243974 -0.00738051205782 0.0
1.32668414456 -0.00588152138875 0.0
1.28029552522 0.0054423252473 0.0
1.30262649756 0.0171835142208 0.0
1.32940921296 -0.0153745223407 0.0
1.2881345738 0.000180159585225 0.0
1.26339921622 0.00351485533363 0.0
1.28654512445 0.00187347133691 0.0
1.27006801248 0.0159026016792 0.0
1.29820382286 -0.00885490344908 0.0
1.25602905686 0.00588489322709 0.0
1.26648499187 -0.00165280984018 0.0
1.25101566434 0.00728904431343 0.0
1.26611090093 0.00142152313355 0.0
1.11158736198 0.0871220045208 0.0
1.26493122871 -0.0113585980273 0.0
1.21504057408 0.00090406267733 0.0
1.22072488482 -0.00297269936779 0.0
1.24845157265 0.0270167913026 0.0
1.25302915971 -0.0169157605057 0.0
1.19832209112 -0.0728801890991 0.0
1.20242309626 -0.00949516771031 0.0
1.20367892755 -0.00824798349654 0.0
1.16197216024 -0.0114945000847 0.0
1.15134447346 0.00112738181889 0.0
1.19819834886 0.0156089033716 0.0
1.15627944804 0.0299682461215 0.0
1.11233885822 -0.00939886763012 0.0
1.20750043443 -0.00534912256837 0.0
1.16943493987 0.00367370774942 0.0
1.14826961817 0.00687746264348 0.0
1.18558011133 0.0030352350486 0.0
1.15979717021 0.00847601834153 0.0
1.18217284816 -0.00360455093728 0.0
1.16274443449 0.00960277192774 0.0
1.17677252738 -0.00697137636242 0.0
1.1382625921 0.00567702014321 0.0
1.16878635139 -0.00754776396962 0.0
0.985641445848 -0.000721581086932 0.0
1.01439724811 -6.06911428788e-05 0.0
0.988586806258 0.000746277098096 0.0
1.00920066555 -0.0025481402412 0.0
0.997599008114 0.000128526012811 0.0
1.03104175854 -0.00673847800661 0.0
1.01248910001 -0.00249564086132 0.0
0.937194141616 0.00118158490576 0.0
0.912146927848 0.00315564957765 0.0
0.922747696107 -0.00211757113285 0.0
1.14246177087 -0.00351322684037 0.0
0.973857277805 -0.0227160221413 0.0
0.975886060648 0.0215798347221 0.0
1.16984114762 0.00646411484297 0.0
0.992038932774 -0.0105030018956 0.0
1.42826599485 -0.0084481416215 0.0
0.865301065724 -0.000506309499401 0.0
1.04971485299 0.0571256437084 0.0
1.4347697361 -0.00846933629555 0.0
1.11948412385 -0.0248636647595 0.0
0.858069515441 -0.00693153561983 0.0
1.08458446638 -0.0809814962243 0.0
0.834869295095 -0.0539463065592 0.0
1.19101864092 -0.176714428861 0.0
0.921105735629 -0.00748418622661 0.0
0.946317186288 0.011668030895 0.0
0.931416762446 -0.0145810873644 0.0
1.02527424871 0.0279013220961 0.0
0.930073709533 -0.00746318746058 0.0
0.942302164288 0.00911089928762 0.0
0.921434727493 -0.00841714107696 0.0
0.937001195868 0.00880311895891 0.0
0.964789513522 0.019894597069 0.0
0.911650675249 -0.0104823409536 0.0
0.92110266405 0.00925024349497 0.0
0.921374339827 -0.0116564659914 0.0
0.891552598054 0.00495360762297 0.0
0.917152266732 0.00603100632685 0.0
0.921823371607 -0.0263017081439 0.0
0.966850575685 -0.0240924932244 0.0
0.9130484519 -0.015656306439 0.0
0.923668112291 0.00879615359766 0.0
0.8891382315 -0.00988511455228 0.0
1.39164166469 -0.013017622085 0.0
1.40644130322 0.0173029967821 0.0
0.899385207871 -0.00996822989316 0.0
0.86959159899 0.0107881002753 0.0
1.43998864799 -0.000879318815761 0.0
1.43498811423 0.00781471342855 0.0
0.872655579214 0.00166122297883 0.0
0.894237299069 -5.2479847148e-05 0.0
0.880595480961 0.00234294217699 0.0
0.905253583528 -0.00585276399951 0.0
0.891913733915 0.00263130936858 0.0
0.93828075631 0.00460209320089 0.0
0.906586286165 -0.00234490223775 0.0
1.43404588727 0.00613748870062 0.0
1.43641010534 -0.000330581884367 0.0
1.42725838696 0.00358747716931 0.0
1.43546990632 -0.0026693318701 0.0
1.40397108458 -0.000310506103786 0.0
1.43579441049 -0.0069151218169 0.0
1.43114352641 0.00524593965267 0.0
1.43439348839 -0.00812969275799 0.0
1.39736273179 0.0114667806239 0.0
1.34573732744 -0.0110618460885 0.0
1.31013030416 -0.0234891865559 0.0
1.44152382594 -0.011558663737 0.0
1.43545174105 -0.0194929000332 0.0
1.42476979252 0.000126771184806 0.0
1.42103851311 0.0134000361152 0.0
1.44803882072 -0.00835044008867 0.0
1.4249861181 0.0179874300546 0.0
1.43109144568 -0.0063982060548 0.0
1.42177716768 0.00900158120122 0.0
1.39888608185 -0.00145695902935 0.0
1.42198333906 0.0122483114469 0.0
1.41352793579 -0.00752732771192 0.0
1.42236713758 0.0156418600339 0.0
1.41856797689 -0.00630659150782 0.0
0.896283179866 -0.00732938787445 0.0
0.885755912811 0.00222086759292 0.0
0.92919783237 0.00468607352414 0.0
0.891604724407 0.0213638536584 0.0
0.926352203076 -0.0206195216807 0.0
0.875189215276 0.00238336048358 0.0
0.899957899022 -0.00176205697361 0.0
0.868762975444 0.00135857053655 0.0
0.896394827727 0.00202836575918 0.0
0.898564711707 0.0478623261668 0.0
0.906924209208 -0.0510693253888 0.0
1.10816205273 0.143976758871 0.0
0.856186283169 -0.0190862073441 0.0
0.91550282061 0.00386549088499 0.0
1.02583785116 0.00548640156959 0.0
1.31809760597 -0.0220504581144 0.0
1.2309139026 -0.110532762691 0.0
0.888811908876 0.00641502647931 0.0
0.820080868925 0.00614598392029 0.0
0.82011725111 0.00911910871529 0.0
0.851006938397 -0.00337296287563 0.0
0.789112468697 0.0219509971815 0.0
0.782272164161 -0.0190756655554 0.0
0.832440063689 0.00961701884705 0.0
0.845894179472 -0.00688241660466 0.0
0.833338822687 0.00859615458673 0.0
0.842381452306 -0.00731585745411 0.0
1.35131293247 -0.00862589513027 0.0
1.33294763946 0.015046896137 0.0
0.833552369803 -0.00594070797281 0.0
1.34898959572 0.000440884885933 0.0
1.36793660028 0.0143108424402 0.0
0.884985119393 -0.00395253259811 0.0
0.964322941252 0.133707037689 0.0
1.37866516469 0.00305887957978 0.0
1.36003792181 0.00565364758242 0.0
0.93981943468 -0.0192616683956 0.0
0.889718546461 9.88621172844e-05 0.0
1.37530024 -0.00337500655653 0.0
1.36081425015 0.00847239401905 0.0
1.3449993133 0.00784522782109 0.0
1.36954942649 -0.00570638827639 0.0
0.922225080664 0.024383291382 0.0
1.35913924874 -0.0091962553739 0.0
1.28406539258 0.020806628319 0.0
1.29776298209 -0.0212764660608 0.0
1.31357467075 0.000337101645589 0.0
1.26431862195 -0.0115778520648 0.0
1.29664983199 0.0077692246867 0.0
1.28650167461 0.000114774652804 0.0
1.29268849581 -8.95981656576e-05 0.0
1.29010358094 -0.00736997352232 0.0
1.26650934713 0.0115150162879 0.0
1.28820132571 -0.00543305823758 0.0
1.27640022469 0.00373408218822 0.0
1.27087977745 0.00580845400189 0.0
1.28397993781 -0.00152465483014 0.0
1.31246877306 -0.017881862814 0.0
1.26051581922 -0.0155097090626 0.0
1.29588439501 -0.00255532704319 0.0
1.28393501122 0.00318233574793 0.0
1.31631706784 0.00102058610349 0.0
1.27763716675 0.0133268911722 0.0
1.31796638353 -0.0129091833651 0.0
1.25744832057 -0.0619878844777 0.0
1.3159841474 -0.00404236724736 0.0
1.27906638442 -0.00229598360587 0.0
1.29574883023 -0.007519538063 0.0
1.27233861058 -0.000372414228109 0.0
1.2830876998 0.000568582852711 0.0
1.20650572279 0.0414075791899 0.0
1.32984607042 -0.00345305521878 0.0
1.26688493349 0.00182201365509 0.0
1.28513207212 0.00112373396414 0.0
1.2898491093 -0.0109484511481 0.0
1.29302922747 0.00812820675262 0.0
0.972304450513 -0.125714811421 0.0
1.30561873432 -0.0123968172272 0.0
1.31189332056 0.0215857926819 0.0
1.42914849158 -0.00100774672829 0.0
1.42230111609 0.00760783503289 0.0
1.28481861289 0.000621380281006 0.0
0.994793215958 0.0806196357143 0.0
0.735822669217 -0.00970076209408 0.0
1.0791667568 0.123610585159 0.0
1.03493144077 -0.0988213041286 0.0
1.3059247074 -0.00690673450372 0.0
1.32686033406 -0.0122633131316 0.0
1.24863899658 0.0185230245089 0.0
1.39430056809 -0.0182807551886 0.0
1.3718538777 0.0315222853279 0.0
0.842635628211 0.0713552337109 0.0
0.746982106691 0.0288654103828 0.0
1.17660220581 -0.155729674367 0.0
0.831348828899 -0.0676977954635 0.0
1.39162435157 -0.0142772899903 0.0
1.40182712709 0.0274414141863 0.0
0.648119722351 0.0222647119738 0.0
0.682209411187 0.0100303768664 0.0
0.652703094622 -0.0226411890952 0.0
1.41368182291 0.01970295722 0.0
1.40018350611 -0.0115422240087 0.0
1.37319141093 -0.00608682070781 0.0
1.35118926696 0.00797684909615 0.0
1.41077158012 0.0151580881107 0.0
1.39779325067 -0.00971534821274 0.0
1.40626782344 0.0128402765097 0.0
1.37923760765 -0.00361732032649 0.0
0.687708590604 0.0091291308462 0.0
0.680402308595 -0.00933959461283 0.0
1.40052794404 0.00432215990037 0.0
0.689930928883 0.00971721355296 0.0
0.676389982894 -0.00777466434406 0.0
0.701199539132 0.0151862576152 0.0
0.665605320813 -0.00852552915285 0.0
0.832661098342 -0.0267457852781 0.0
0.699967017435 -0.0225227460137 0.0
0.729031749352 -0.00189283586052 0.0
0.721250461823 -0.00944092645666 0.0
0.772720527941 0.0380999344613 0.0
0.683218738634 -0.0219085363541 0.0
0.731399455832 0.00324252773009 0.0
0.700915133727 -0.00448372527771 0.0
0.609660839257 0.028742266907 0.0
1.23263065995 -0.0898617968339 0.0
0.799574892295 -0.000576016676483 0.0
0.648217522947 0.0234022210516 0.0

SCALARS scalar1 double
LOOKUP_TABLE default
3.48313860786
5.97070619621
6.24639428557
6.34821452166
-5.86364236378
-2.40371224845
11.4122416599
10.1203723122
7.65345809041
6.7862299048
6.13045586258
6.11248593831
6.07425633115
5.74549245029
6.16437481457
5.93593420407
5.94485409073
6.06064613709
6.19926119305
6.14350305147
6.13936584074
6.29433081624
6.2034064229
6.18292893968
6.31253040841
6.19352540246
6.07381577896
6.40531924139
6.63286405761
6.46422489204
8.11515170832
4.91894054494
8.24373807958
6.67957602128
6.91013852232
6.73263689923
6.29004809335
6.31962365655
6.43510830494
6.26992278196
6.28310788084
6.40463378725
6.26847754764
6.16426055428
6.18373202445
6.44649042039
5.96140011216
6.20142564735
6.1109430423
5.79865148556
5.9026532137
5.82497068065
6.37606018869
6.09086191745
3.20021623091
0.924206667954
-0.878354468805
-3.07814534762
-6.24718629517
-6.34737550466
-5.86940238211
-5.4954388023
-5.67684568301
-5.50175374804
-6.0193929314
-5.66699136023
-5.48417477445
-5.81069137023
-5.61651336408
-5.43351957594
-5.79315765475
-5.62116299426
-5.43672749824
-5.829527418
-5.73916973274
-5.45628331144
-5.81996398386
-7.1233136947
-4.86082166954
-5.85667897104
-5.71985753146
-5.69371403875
-5.77630224586
-4.77584832452
-6.9820123139
-5.7425983321
-5.42291861039
-5.71965095026
-5.81380133826
-5.44926471162
-5.65043342175
-5.82282511403
-5.47202362475
-5.68369984924
-5.87469811878
-5.56182346495
-5.81480085303
-6.08396206953
-5.82492072619
-6.15237341406
-6.79335809222
-6.26917099557
-6.58099906877
-6.70556515423
-7.48772404987
-9.5975248871
-10.5901166522
2.53124767255
-0.0894540144815
-0.00380592839881
-3.44593416668
-0.204175222579
0.299090445347
0.392689562492
0.436649402073
0.382242964415
0.584259401837
0.745611954939
0.58146274342
0.728916666269
0.610613497095
0.673045387054
0.474482060701
0.576406737497
-0.0151754578664
-0.00165156737408
-0.0851586411125
1.98349395005
-1.12339060865
-1.64914775253
-1.34581771329
-1.46837774343
-1.3085830074
-1.27346267083
-1.4099984567
-1.2935811281
-1.30272283557
-1.31710129359
1.55318653914
1.05141709909
-1.06906076668
-1.45625417434
1.56755565134
1.59090881927
-0.315619176734
-1.35231228192
1.65925633289
1.77033767309
1.286323154
1.74933157394
1.65534751556
1.82850258273
1.70127849491
1.8584890559
1.74876216696
0.742154572614
-1.84956692514
-1.69104607057
-1.77028174995
1.33487663091
1.47542129259
1.2143678733
2.36262817332
2.36683446737
2.19607233356
-2.35342169236
-1.90217369369
-1.7915104306
-2.68014781125
2.37390102447
2.39971482683
-2.34700121351
-2.26336879908
-2.25405626019
-2.26064130229
-2.21718582608
-2.23378310726
-2.28697665134
-2.23924329729
3.27191289583
3.25038703106
3.31573349738
3.26779967051
3.29638659278
3.12300462156
3.22446832968
3.66990666611
3.78439059137
-3.21623048237
-2.39368690349
-2.70117219734
-2.51788854366
1.64453210578
-0.087534271758
-0.0127582007546
-3.67555996679
-2.9558889235
0.0466460229864
-0.198488441385
3.7635834237
3.09425888667
3.76713104611
-0.748722362102
-3.2745809869
-3.38132062481
-3.30576657568
-2.93915841553
-3.23760437993
-3.31230344542
-3.26836772797
-3.28494845635
-3.40745322332
-3.34796648716
-3.34789551949
3.62153095678
3.50749761554
3.59541696838
3.4027506948
3.30957393116
3.56055705328
3.64906335042
3.53439640789
-0.18285307245
-0.222096513668
3.70585414184
3.66349145717
0.180559949826
0.345236675737
3.77497907647
3.78369247632
3.78132076115
3.72064969287
3.73798282099
3.69335864041
3.80636552789
0.246137894771
0.352876310663
0.198999977021
0.308279730344
0.0022444473018
0.239449132638
0.0480824849857
0.12097403579
0.328400085852
0.103501059648
-0.0391911274364
0.0982159626628
0.0581539517834
0.193407433677
0.28692340439
0.0780613129329
0.357478079487
0.151786551623
0.330235240777
0.104035100973
0.38789350588
0.277188491789
0.420039477825
0.275692962341
3.71479209457
3.77371850727
3.60450151047
3.62949576853
3.67072204008
3.79858009229
3.74127388271
3.77478016755
3.76499558706
-3.23782127992
-3.12957220172
0.0167817275931
-3.84850390876
-3.37453194612
-2.95188719857
1.59402787786
-0.60114005217
-3.80102342992
-3.75379638396
-3.69302323915
-3.79880435766
-3.89503152128
-3.88300168917
-3.63537029801
-3.70321700832
-3.65737539545
-3.65578321406
-1.13348193184
-0.355803891253
-3.67146404264
-1.16586793732
-0.849173547575
-3.3126361787
3.68233694228
-0.933687219943
-1.06178594465
3.67477501844
-3.30021918314
-0.946534726563
-0.997429270155
-1.00289366966
-0.967546867095
3.79050861487
-1.04213200679
-1.30295669259
-1.39140544099
1.44990662534
1.49894777254
1.5349647266
1.70359597706
1.25278241938
1.78173090893
1.77950718432
1.74089977015
1.77372807153
1.81860717835
1.83357367839
1.51806893243
1.123089276
1.77839615979
1.65406767406
1.47716704112
1.50803646769
1.51008767318
0.751143556659
1.41068570184
1.88235459009
1.38498900103
1.93093918519
1.70237695079
0.246738380835
-1.32082849811
1.93995379609
1.71249559024
-1.14484974326
-1.23520479696
3.60628162741
1.2261068935
1.39793591724
0.268107783017
0.259926198097
-1.73487784976
1.13764939034
-4.35191176305
-3.48087725487
-1.59927002312
1.82814145351
-1.24519809909
-0.0370452284758
-0.836222240654
-0.286997002064
-3.77987326918
4.34223079872
3.71691903096
-3.91626289031
-0.828005561627
-0.587721440812
-4.15797347398
-4.06537265591
-4.16760178444
-0.605736262762
-0.706170409872
-1.0795531213
-0.976700321293
-0.625074322803
-0.659898954901
-0.660633447546
-0.75213520237
-4.07791695138
-4.07948690823
-0.790241760018
-4.14467626793
-4.0759483955
-4.26913685783
-4.14061123929
4.40942238827
4.33522044936
4.40545143056
4.26595176037
-4.27309409381
-4.18363059074
4.49516703314
4.3433696006
4.85165717654
1.11787447956
-4.31021644495
-4.24554675205

SCALARS scalar2 double
LOOKUP_TABLE default
3.48313860786
5.97070619621
6.24639428557
6.34821452166
-5.86364236378
-2.40371224845
11.4122416599
10.1203723122
7.65345809041
6.7862299048
6.13045586258
6.11248593831
6.07425633115
5.74549245029
6.16437481457
5.93593420407
5.94485409073
6.06064613709
6.19926119305
6.14350305147
6.13936584074
6.29433081624
6.2034064229
6.18292893968
6.31253040841
6.19352540246
6.07381577896
6.40531924139
6.63286405761
6.46422489204
8.11515170832
4.91894054494
8.24373807958
6.67957602128
6.91013852232
6.73263689923
6.29004809335
6.31962365655
6.43510830494
6.26992278196
6.28310788084
6.40463378725
6.26847754764
6.16426055428
6.18373202445
6.44649042039
5.96140011216
6.20142564735
6.1109430423
5.79865148556
5.9026532137
5.82497068065
6.37606018869
6.09086191745
3.20021623091
0.924206667954
-0.878354468805
-3.07814534762
-6.24718629517
-6.34737550466
-5.86940238211
-5.4954388023
-5.67684568301
-5.50175374804
-6.0193929314
-5.66699136023
-5.48417477445
-5.81069137023
-5.61651336408
-5.43351957594
-5.79315765475
-5.62116299426
-5.43672749824
-5.829527418
-5.73916973274
-5.45628331144
-5.81996398386
-7.1233136947
-4.86082166954
-5.85667897104
-5.71985753146
-5.69371403875
-5.77630224586
-4.77584832452
-6.9820123139
-5.7425983321
-5.42291861039
-5.71965095026
-5.81380133826
-5.44926471162
-5.65043342175
-5.82282511403
-5.47202362475
-5.68369984924
-5.87469811878
-5.56182346495
-5.81480085303
-6.08396206953
-5.82492072619
-6.15237341406
-6.79335809222
-6.26917099557
-6.58099906877
-6.70556515423
-7.48772404987
-9.5975248871
-10.5901166522
2.53124767255
-0.0894540144815
-0.00380592839881
-3.44593416668
-0.204175222579
0.299090445347
0.392689562492
0.436649402073
0.382242964415
0.584259401837
0.745611954939
0.58146274342
0.728916666269
0.610613497095
0.673045387054
0.474482060701
0.576406737497
-0.0151754578664
-0.00165156737408
-0.0851586411125
1.98349395005
-1.12339060865
-1.64914775253
-1.34581771329
-1.46837774343
-1.3085830074
-1.27346267083
-1.4099984567
-1.2935811281
-1.30272283557
-1.31710129359
1.55318653914
1.05141709909
-1.06906076668
-1.45625417434
1.56755565134
1.59090881927
-0.315619176734
-1.35231228192
1.65925633289
1.77033767309
1.286323154
1.74933157394
1.65534751556
1.82850258273
1.70127849491
1.8584890559
1.74876216696
0.742154572614
-1.84956692514
-1.69104607057
-1.77028174995
1.33487663091
1.47542129259
1.2143678733
2.36262817332
2.36683446737
2.19607233356
-2.35342169236
-1.90217369369
-1.7915104306
-2.68014781125
2.37390102447
2.39971482683
-2.34700121351
-2.26336879908
-2.25405626019
-2.26064130229
-2.21718582608
-2.23378310726
-2.28697665134
-2.23924329729
3.27191289583
3.25038703106
3.31573349738
3.26779967051
3.29638659278
3.12300462156
3.22446832968
3.66990666611
3.78439059137
-3.21623048237
-2.39368690349
-2.70117219734
-2.51788854366
1.64453210578
-0.087534271758
-0.0127582007546
-3.67555996679
-2.9558889235
0.0466460229864
-0.198488441385
3.7635834237
3.09425888667
3.76713104611
-0.748722362102
-3.2745809869
-3.38132062481
-3.30576657568
-2.93915841553
-3.23760437993
-3.31230344542
-3.26836772797
-3.28494845635