# vtk DataFile Version 2.0
2D Simulation Python
ASCII
DATASET UNSTRUCTURED_GRID
FIELD FieldData 1
NODES 1 2 int
386 659

POINTS 386 double
0.0 1.0 0.0
1.725 1.0 0.0
8.275 1.0 0.0
10.0 1.0 0.0
10.0 0.0 0.0
0.0 0.0 0.0
0.1916666666663293 1.0 0.0
0.3833333333324708 1.0 0.0
0.574999999998553 1.0 0.0
0.7666666666645966 1.0 0.0
0.9583333333312576 1.0 0.0
1.149999999998384 1.0 0.0
1.341666666665662 1.0 0.0
1.533333333332819 1.0 0.0
1.92348484848444 1.0 0.0
2.121969696968978 1.0 0.0
2.320454545453434 1.0 0.0
2.518939393937826 1.0 0.0
2.717424242422235 1.0 0.0
2.915909090906411 1.0 0.0
3.1143939393908 1.0 0.0
3.312878787875129 1.0 0.0
3.511363636359531 1.0 0.0
3.709848484843827 1.0 0.0
3.90833333332816 1.0 0.0
4.106818181812215 1.0 0.0
4.305303030296804 1.0 0.0
4.503787878781365 1.0 0.0
4.702272727265711 1.0 0.0
4.900757575750005 1.0 0.0
5.099242424235156 1.0 0.0
5.297727272720327 1.0 0.0
5.496212121205663 1.0 0.0
5.694696969690998 1.0 0.0
5.89318181817668 1.0 0.0
6.09166666666213 1.0 0.0
6.290151515147423 1.0 0.0
6.488636363633031 1.0 0.0
6.687121212118713 1.0 0.0
6.885606060604342 1.0 0.0
7.084090909089381 1.0 0.0
7.282575757574369 1.0 0.0
7.481060606059355 1.0 0.0
7.679545454544343 1.0 0.0
7.878030303029329 1.0 0.0
8.076515151514705 1.0 0.0
8.46666666666447 1.0 0.0
8.658333333329285 1.0 0.0
8.84999999999549 1.0 0.0
9.041666666661694 1.0 0.0
9.233333333327899 1.0 0.0
9.42499999999549 1.0 0.0
9.616666666663775 1.0 0.0
9.808333333331985 1.0 0.0
10.0 0.7999999999999998 0.0
10.0 0.6000000000013869 0.0
10.0 0.4000000000016644 0.0
10.0 0.2000000000008322 0.0
9.799999999999999 0.0 0.0
9.6 0.0 0.0
9.399999999999999 0.0 0.0
9.2 0.0 0.0
8.999999999999998 0.0 0.0
8.799999999999997 0.0 0.0
8.599999999999998 0.0 0.0
8.399999999999997 0.0 0.0
8.199999999999998 0.0 0.0
7.999999999999997 0.0 0.0
7.799999999999997 0.0 0.0
7.599999999999998 0.0 0.0
7.399999999999997 0.0 0.0
7.199999999999998 0.0 0.0
6.999999999999997 0.0 0.0
6.799999999999997 0.0 0.0
6.599999999999998 0.0 0.0
6.399999999999997 0.0 0.0
6.199999999999998 0.0 0.0
5.999999999999997 0.0 0.0
5.799999999999998 0.0 0.0
5.599999999999998 0.0 0.0
5.399999999999999 0.0 0.0
5.199999999999998 0.0 0.0
4.999999999999999 0.0 0.0
4.799999999999999 0.0 0.0
4.599999999999999 0.0 0.0
4.399999999999999 0.0 0.0
4.199999999999999 0.0 0.0
3.999999999999999 0.0 0.0
3.799999999999999 0.0 0.0
3.599999999999999 0.0 0.0
3.399999999999998 0.0 0.0
3.199999999999998 0.0 0.0
2.999999999999999 0.0 0.0
2.799999999999998 0.0 0.0
2.599999999999998 0.0 0.0
2.399999999999999 0.0 0.0
2.199999999999999 0.0 0.0
1.999999999999998 0.0 0.0
1.799999999999999 0.0 0.0
1.6 0.0 0.0
1.4 0.0 0.0
1.199999999999999 0.0 0.0
0.9999999999999982 0.0 0.0
0.7999999999999989 0.0 0.0
0.6000000000000014 0.0 0.0
0.3999999999999986 0.0 0.0
0.1999999999999993 0.0 0.0
0.0 0.1999999999995579 0.0
0.0 0.3999999999989749 0.0
0.0 0.5999999999989468 0.0
0.0 0.7999999999994734 0.0
0.6587818381684017 0.5457239269753272 0.0
9.341217780048765 0.5457234627572243 0.0
8.741600077107956 0.5669490006517935 0.0
1.2583968866449566 0.5669541437348522 0.0
8.16309738091588 0.5721096553131388 0.0
1.8368843948306803 0.5721522232206202 0.0
2.430149971749852 0.5972818420416968 0.0
7.569753839365235 0.5969876660528896 0.0
3.0301726878317305 0.6015230441430354 0.0
6.969298958990545 0.5996774466986781 0.0
3.6283463785436862 0.6003829212794123 0.0
6.36819929382251 0.5904862700404446 0.0
4.229141588149275 0.5905837470159263 0.0
5.795252234584652 0.527741428378305 0.0
4.802318581567454 0.5277496868433079 0.0
5.2988010067747515 0.5198248397366604 0.0
9.677476841867874 0.7004131067931978 0.0
0.32252307756582527 0.7004131883555196 0.0
4.530337980090948 0.3379214428665538 0.0
3.918550735026976 0.3717601781905269 0.0
6.068115711164161 0.3378900857418818 0.0
3.3191156217626534 0.3760132019921739 0.0
6.679887125767312 0.37147536507189116 0.0
7.879225870898927 0.3667747153752488 0.0
2.1207360800100448 0.36688061201265965 0.0
2.7198303735903337 0.37497764796353183 0.0
7.279969209028442 0.3742634186469377 0.0
9.037370634242054 0.6721992180012006 0.0
0.9626284036719583 0.6722005706705575 0.0
1.5319002317442327 0.3598373246267821 0.0
8.468092982827041 0.35982334650996356 0.0
8.458484721264572 0.6794602377404134 0.0
1.5415088263647272 0.6794729165051003 0.0
0.9792981088609539 0.3649833900349197 0.0
9.020700765576988 0.3649817091427559 0.0
4.527013665686979 0.6901458836147704 0.0
3.9211373734699677 0.7011674388980765 0.0
6.06983510226509 0.69012130791645 0.0
2.118129573775322 0.691351320724284 0.0
7.881835902780188 0.691259869616809 0.0
3.323072139811053 0.7044230120772275 0.0
6.675782677848806 0.7009382042050734 0.0
2.725097688433961 0.7034801226724907 0.0
7.2747120882501015 0.7028646343331882 0.0
0.3328163828474671 0.30353647063707045 0.0
9.667183524333787 0.30353637190296595 0.0
5.581375660264838 0.32121863172569354 0.0
5.017135498486361 0.3212202790263046 0.0
5.509492160501799 0.6939000583606895 0.0
5.087325321350319 0.6939009057802312 0.0
0.6618500871352809 0.7353613167054769 0.0
9.338149635124791 0.7353609891732015 0.0
8.74775276448577 0.7396530984776188 0.0
1.252245035991394 0.7396567324564894 0.0
8.670520147113256 0.27570461870719987 0.0
1.3294767344932 0.27571038015400134 0.0
0.6803550780990498 0.23674928863260175 0.0
9.319644630403118 0.23674892146777468 0.0
8.170105382519194 0.7443559635165611 0.0
1.8298815005818068 0.7443857861601336 0.0
8.082434853862276 0.2776135180360099 0.0
1.9175467615461812 0.2776600742427865 0.0
7.4853983138641365 0.2848828008336478 0.0
2.5145034927243364 0.28520978687120974 0.0
6.885372054973265 0.2853105731092966 0.0
3.114151949623979 0.2874374506838201 0.0
6.285094893024317 0.27064023791677055 0.0
3.7135427975356423 0.2857732320658802 0.0
2.4222759904107973 0.8117443604392487 0.0
7.577668577302816 0.8115795016371532 0.0
3.02141541016459 0.8145105747576518 0.0
6.97826839174103 0.8135021337626551 0.0
3.618270873783153 0.813915944606739 0.0
6.379604183375345 0.8095112753992341 0.0
4.216730361616072 0.8095669952035097 0.0
5.793654084722445 0.8430157612109139 0.0
4.802499325541868 0.8430192847835462 0.0
5.299569279615774 0.1855228329093383 0.0
4.313686619271612 0.270704381908236 0.0
4.743085518572311 0.23779597953102882 0.0
5.855816244869692 0.23778605256378121 0.0
5.298357433878861 0.7168900879709319 0.0
0.1948217522760043 0.5020674245906003 0.0
9.805178193952257 0.5020673708770312 0.0
9.486986645688983 0.1622496140515748 0.0
0.5130132395015867 0.16224974667000788 0.0
9.568963696249378 0.5120554261625496 0.0
0.43103613822152154 0.5120556070420044 0.0
9.509161759999701 0.8362584098290315 0.0
0.49083814107341417 0.8362585164653387 0.0
9.82369268452552 0.8277046622767836 0.0
0.1763072916025514 0.8277046846115138 0.0
7.690823951946331 0.19228855671006786 0.0
2.30913622245565 0.19241131086338542 0.0
8.876738908689106 0.19157235326700173 0.0
1.1232599044789344 0.19157432774418745 0.0
7.091032213193499 0.19443492246521918 0.0
2.9087700140622657 0.1952493327916089 0.0
6.491203993974815 0.1894792418796013 0.0
3.5083558110777426 0.1950618568514494 0.0
1.7131982791767382 0.18781718224826377 0.0
8.286794430099121 0.18780037487150228 0.0
4.10797133943413 0.18957768563614696 0.0
8.577665618142031 0.8282758929659352 0.0
1.4223316439171516 0.8282809444949055 0.0
8.923405883191288 0.8260630733584732 0.0
1.0765932285404771 0.826064409311725 0.0
0.8418181130684094 0.8247321513176273 0.0
9.158181499096832 0.8247316390177488 0.0
8.34597628356982 0.8293673079344948 0.0
1.6540180709690242 0.8293790902048145 0.0
5.592512316353996 0.5042056880063112 0.0
5.005162518871064 0.50420797129338 0.0
7.789549071021755 0.8390013384309485 0.0
2.2104243041126903 0.839074429820016 0.0
7.777144800077504 0.5512077063561124 0.0
2.2227995225868598 0.5513655852431373 0.0
2.815112847154244 0.8444059622633691 0.0
7.184737368375703 0.843928900077828 0.0
3.411884960178184 0.8446271101712083 0.0
6.587163342938591 0.8421908064879832 0.0
4.009050879550137 0.8422898725791598 0.0
5.984909040785356 0.8431738897056403 0.0
4.611247190746947 0.8431831789247186 0.0
7.175454415850325 0.5589078116076712 0.0
2.8242446775604306 0.559945274490106 0.0
6.575455716748061 0.554252478978193 0.0
3.4227542810014335 0.560297243412182 0.0
5.978189238328388 0.5311362057982567 0.0
4.022111217539425 0.5544605279221473 0.0
4.619374463414892 0.5311571594991298 0.0
8.549199880230235 0.5400142616773932 0.0
1.4507944064806222 0.5400251180526924 0.0
1.0631859993782253 0.5312950967453017 0.0
0.8721689624097418 0.5237373482548988 0.0
8.936812382660447 0.5312926360261182 0.0
9.127830206525305 0.52373621296281 0.0
4.433931315220599 0.5456233569035818 0.0
1.6370952767649989 0.536281295036681 0.0
8.362894430480077 0.5362595159046598 0.0
2.032596604207687 0.5485246834420223 0.0
7.967371045713404 0.5484410069469583 0.0
3.830465630536965 0.5630060878905032 0.0
6.163582805078045 0.5455764390352252 0.0
3.231857172329231 0.5660838787850644 0.0
6.767164288166558 0.5626182644560712 0.0
2.632853974376388 0.5641526154534966 0.0
7.366971441549763 0.563580829199102 0.0
4.421614249510888 0.8396398537867482 0.0
3.8217544381089237 0.8435944456743043 0.0
6.174565433856989 0.8396180824155817 0.0
1.999053855088309 0.8334190942771029 0.0
8.00093130221196 0.8333821715968202 0.0
3.2249717945879204 0.8449349260467184 0.0
6.774506673586191 0.8434095230490422 0.0
2.6277282320005555 0.8439174213782453 0.0
7.372184943285416 0.8436474942888341 0.0
4.921916240723269 0.18319876540176167 0.0
5.677233706048069 0.1831963204495056 0.0
0.16562613241075105 0.15674860340615682 0.0
9.834373841160755 0.15674857719393195 0.0
9.136576482487698 0.18250795898269423 0.0
0.8634230601357437 0.18250861690443249 0.0
9.48699643700699 0.6659491456532773 0.0
0.513003373053619 0.6659493546497606 0.0
1.480185536749484 0.1580490656275044 0.0
8.519811379605397 0.15804278936128277 0.0
7.925241211457243 0.16027426471295494 0.0
2.0747412189362007 0.16032279162111296 0.0
6.138092383423224 0.14563345615831838 0.0
4.461244258863234 0.14565646362796383 0.0
[...]
POINT_DATA 386
VECTORS vector double
1.0 0.0 0.0
0.0 0.0 0.0
0.0 0.0 0.0
0.0 0.0 0.0
0.0 0.0 0.0
1.0 0.0 0.0
0.0 0.0 0.0
0.0 0.0 0.0
0.0 0.0 0.0
0.0 0.0 0.0
0.0 0.0 0.0
0.0 0.0 0.0
0.0 0.0 0.0
0.0 0.0 0.0
0.0 0.0 0.0
0.0 0.0 0.0
0.0 0.0 0.0
0.0 0.0 0.0
0.0 0.0 0.0
0.0 0.0 0.0
0.0 0.0 0.0
0.0 0.0 0.0
0.0 0.0 0.0
0.0 0.0 0.0
0.0 0.0 0.0
0.0 0.0 0.0
0.0 0.0 0.0
0.0 0.0 0.0
0.0 0.0 0.0
0.0 0.0 0.0
0.0 0.0 0.0
0.0 0.0 0.0
0.0 0.0 0.0
0.0 0.0 0.0
0.0 0.0 0.0
0.0 0.0 0.0
0.0 0.0 0.0
0.0 0.0 0.0
0.0 0.0 0.0
0.0 0.0 0.0
0.0 0.0 0.0
0.0 0.0 0.0
0.0 0.0 0.0
0.0 0.0 0.0
0.0 0.0 0.0
0.0 0.0 0.0
0.0 0.0 0.0
0.0 0.0 0.0
0.0 0.0 0.0
0.0 0.0 0.0
0.0 0.0 0.0
0.0 0.0 0.0
0.0 0.0 0.0
0.0 0.0 0.0
0.967979865665 0.0909540042075 0.0
1.38990462117 -0.00171790834028 0.0
1.3814477665 -0.00855627698124 0.0
0.964657730112 -0.0886156059369 0.0
0.0 0.0 0.0
0.0 0.0 0.0
0.0 0.0 0.0
0.0 0.0 0.0
0.0 0.0 0.0
0.0 0.0 0.0
0.0 0.0 0.0
0.0 0.0 0.0
0.0 0.0 0.0
0.0 0.0 0.0
0.0 0.0 0.0
0.0 0.0 0.0
0.0 0.0 0.0
0.0 0.0 0.0
0.0 0.0 0.0
0.0 0.0 0.0
0.0 0.0 0.0
0.0 0.0 0.0
0.0 0.0 0.0
0.0 0.0 0.0
0.0 0.0 0.0
0.0 0.0 0.0
0.0 0.0 0.0
0.0 0.0 0.0
0.0 0.0 0.0
0.0 0.0 0.0
0.0 0.0 0.0
0.0 0.0 0.0
0.0 0.0 0.0
0.0 0.0 0.0
0.0 0.0 0.0
0.0 0.0 0.0
0.0 0.0 0.0
0.0 0.0 0.0
0.0 0.0 0.0
0.0 0.0 0.0
0.0 0.0 0.0
0.0 0.0 0.0
0.0 0.0 0.0
0.0 0.0 0.0
0.0 0.0 0.0
0.0 0.0 0.0
0.0 0.0 0.0
0.0 0.0 0.0
0.0 0.0 0.0
0.0 0.0 0.0
0.0 0.0 0.0
0.0 0.0 0.0
0.0 0.0 0.0
1.0 0.0 0.0
1.0 0.0 0.0
1.0 0.0 0.0
1.0 0.0 0.0
1.23788728522 -0.0451064125551 0.0
1.42624917914 -0.0131935892575 0.0
1.42234476769 -0.00748795438158 0.0
1.35141834934 -0.0078986093805 0.0
1.42152330055 -0.00359177219175 0.0
1.39735677729 0.00821077099415 0.0
1.39087415547 0.00514844402028 0.0
1.40003377399 -0.000824604790763 0.0
1.39389176295 0.000721990551317 0.0
1.39542431034 -0.000179576628847 0.0
1.39574485863 -0.000944679727098 0.0
1.39129243861 -0.00707308431167 0.0
1.40096191741 -0.00259409601322 0.0
1.40117392001 0.0015687455434 0.0
1.42208142799 0.00508303387045 0.0
1.44447764979 0.00274660597513 0.0
1.26994990478 0.00126501482271 0.0
1.14254739291 -0.121766355309 0.0
1.26839593322 0.0093454691788 0.0
1.32392987955 0.000633671495521 0.0
1.25144835356 -0.00664744979835 0.0
1.33236192697 0.00296159807897 0.0
1.31457465377 0.000154807725483 0.0
1.31450360084 -0.00192955667512 0.0
1.33727556664 0.0135603051042 0.0
1.33741673071 0.00584756908323 0.0
1.32160400857 0.000573418085754 0.0
1.32707433677 -0.00789476195221 0.0
1.27013485421 -0.0295034855344 0.0
1.3321713978 0.0252618053519 0.0
1.31107150378 -0.00629486524137 0.0
1.32766839614 -0.00527953322613 0.0
1.2800567381 0.00349457337224 0.0
1.30336294078 0.0174682501366 0.0
1.33431758836 -0.0136273470127 0.0
1.28834685181 -0.000998415817236 0.0
1.26217840719 0.00324738285681 0.0
1.28923737088 0.00172839320185 0.0
1.2685169466 0.0143190620762 0.0
1.2978956358 -0.00834806148464 0.0
1.25417213465 0.00504485057447 0.0
1.26648380387 -0.00338310076948 0.0
1.24914366898 0.00628835663283 0.0
1.26456339831 0.000753600269857 0.0
1.11170784847 0.0870164596813 0.0
1.26528206347 -0.0116407361719 0.0
1.22036649248 0.00243701450938 0.0
1.22723693174 -0.00223891128888 0.0
1.25012196177 0.0299147572158 0.0
1.25451954681 -0.0171347847679 0.0
1.19811576915 -0.0730669412199 0.0
1.20326787838 -0.00818987915259 0.0
1.20204532762 -0.00709029066482 0.0
1.16117761859 -0.0125108304422 0.0
1.15219221054 0.00183243925375 0.0
1.19880062444 0.0157425884864 0.0
1.15657853008 0.0301051473088 0.0
1.10832516559 -0.00911423238053 0.0
1.20415651656 -0.00425496784382 0.0
1.16607358053 0.00243266156056 0.0
1.15075137771 0.00723185193254 0.0
1.18776590227 0.00282853347991 0.0
1.1637766123 0.00844053653125 0.0
1.1853920521 -0.00354237491196 0.0
1.1658333198 0.0087915928141 0.0
1.18033852022 -0.00704458459836 0.0
1.13735371079 0.00418130793392 0.0
1.17228345471 -0.00741087908675 0.0
0.975467381812 -0.000973735228859 0.0
1.00220737465 0.00054153833524 0.0
0.976816573606 0.000681661162886 0.0
0.997326487062 -0.00276872899743 0.0
0.985069980582 0.000461052875746 0.0
1.02219278978 -0.00665295751624 0.0
1.00081821169 -0.00210515601981 0.0
0.926598503949 0.00121600597894 0.0
0.896855586432 0.002306289377 0.0
0.919695179722 -0.000717678081892 0.0
1.1443354004 -0.00319983989747 0.0
0.973997975838 -0.0225962635124 0.0
0.971778342641 0.0209351603283 0.0
1.16535852342 0.0089708416268 0.0
0.992056966109 -0.0106665426805 0.0
1.43722857811 -0.00837942283386 0.0
0.856350479059 -0.000362689536369 0.0
1.04993431963 0.0571129344822 0.0
1.44411909236 -0.00805329652279 0.0
1.11954749859 -0.0250576733653 0.0
0.853338238635 -0.0062822360704 0.0
1.08422643975 -0.0810840691828 0.0
0.831187042045 -0.0542024613294 0.0
1.19094532398 -0.176796175159 0.0
0.920453743389 -0.00740155960514 0.0
0.946313562915 0.0118787064007 0.0
0.926960222751 -0.013534511132 0.0
1.02506435906 0.0282299418142 0.0
0.929616251794 -0.00770364374326 0.0
0.942262825434 0.00932760361731 0.0
0.918803177837 -0.00900418634233 0.0
0.937025265655 0.00904115502095 0.0
0.964378426799 0.020067613514 0.0
0.909485497607 -0.0101916769858 0.0
0.920435084605 0.00961114499876 0.0
0.911981128461 -0.0110715957788 0.0
0.887659203457 0.00376710731462 0.0
0.909821980462 0.00654345649017 0.0
0.920135619607 -0.0268355820355 0.0
0.965967269847 -0.0244317373661 0.0
0.906761766988 -0.0150426474954 0.0
0.913411031958 0.00922535713206 0.0
0.883060593502 -0.0110442953953 0.0
1.40432503692 -0.0114076992388 0.0
1.41901846595 0.0177858573007 0.0
0.886019497163 -0.00899989206715 0.0
0.858612875166 0.00941507299738 0.0
1.44998277028 5.59633904059e-05 0.0
1.4428861177 0.00690555125865 0.0
0.859364298171 0.000521065595713 0.0
0.879819599367 0.000228876152693 0.0
0.865846399609 0.00140195584346 0.0
0.893478563093 -0.00593639627302 0.0
0.877441751897 0.00193977890615 0.0
0.927804503361 0.00424878419476 0.0
0.892586119721 -0.00305401474457 0.0
1.44411207065 0.00588997697076 0.0
1.44558915113 -0.00101515214158 0.0
1.43739884628 0.00241902320707 0.0
1.44552789578 -0.00320836797362 0.0
1.41612160526 -0.000929876175937 0.0
1.44625065955 -0.00699421513285 0.0
1.4419144125 0.00462070286159 0.0
1.44397741006 -0.00719282185527 0.0
1.40082944603 0.0100478631013 0.0
1.34708757671 -0.0115142433459 0.0
1.31075795752 -0.0235932099818 0.0
1.45167978605 -0.00993904764436 0.0
1.44593465001 -0.0181591366751 0.0
1.43451253235 -2.44268279984e-05 0.0
1.42609958798 0.0117906318221 0.0
1.45824393099 -0.00732185317943 0.0
1.4316513241 0.0168274855674 0.0
1.44076856124 -0.00585104702698 0.0
1.43076828126 0.00950531602062 0.0
1.4100343524 -0.00213760891577 0.0
1.43055027434 0.0121263976278 0.0
1.42293892812 -0.00956647635765 0.0
1.43000201048 0.0155364095752 0.0
1.42799056453 -0.00688186429337 0.0
0.882634573918 -0.00682563492626 0.0
0.871463947656 0.00281775351495 0.0
0.91804172213 0.00392363583325 0.0
0.882589437652 0.0202235677999 0.0
0.914112473025 -0.0199906936566 0.0
0.861164991923 0.00258114827842 0.0
0.886724412503 -0.00312831627336 0.0
0.856481943295 0.00132979274542 0.0
0.88142725336 0.0013547756128 0.0
0.896729042881 0.0485663065144 0.0
0.899961783436 -0.0510223416961 0.0
1.10820720329 0.143942011017 0.0
0.84622580258 -0.0182542220924 0.0
0.90889857876 0.00456801620243 0.0
1.02588882472 0.00579565464414 0.0
1.32242487923 -0.0212770929261 0.0
1.23079667478 -0.110710914042 0.0
0.888018077506 0.00675357118281 0.0
0.816384013833 0.00642180288871 0.0
0.818092137474 0.00918072527652 0.0
0.850317887035 -0.00323408977759 0.0
0.783471977603 0.0214580595596 0.0
0.780305749002 -0.0194162826716 0.0
0.831156472451 0.00955905700575 0.0
0.845149486542 -0.0067408751237 0.0
0.830999609112 0.00827982924707 0.0
0.841672805984 -0.00725444479015 0.0
1.35805910882 -0.00724546910283 0.0
1.33452884059 0.0151435696453 0.0
0.832582647256 -0.00581340162994 0.0
1.35678628144 0.00136124052499 0.0
1.37295835354 0.0138200784129 0.0
0.882854868669 -0.00349274288299 0.0
0.946320868085 0.134620302436 0.0
1.38658336103 0.00309966580839 0.0
1.36952347663 0.00618251604558 0.0
0.928456553365 -0.0187216570447 0.0
0.884417957909 0.00152646910538 0.0
1.38420073372 -0.00335952406359 0.0
1.37025638766 0.00792245804976 0.0
1.35248514442 0.00666798968907 0.0
1.37901501137 -0.00552830152673 0.0
0.906006275384 0.0240092844036 0.0
1.36810312583 -0.00876711382129 0.0
1.29168988609 0.0220880451301 0.0
1.30632551161 -0.0216100540093 0.0
1.31511742006 0.001757575066 0.0
1.26434445428 -0.0134722340512 0.0
1.2971293752 0.00629356837719 0.0
1.28604610416 0.00130413707983 0.0
1.29536449109 0.000281268641365 0.0
1.2895535997 -0.00735255268648 0.0
1.26493082138 0.0114103279444 0.0
1.28933386871 -0.00711591364072 0.0
1.27489750465 0.00449642480787 0.0
1.26930231889 0.00610618692013 0.0
1.28289829362 -0.00279919624152 0.0
1.31469680082 -0.0166708797925 0.0
1.26067061814 -0.0164611275127 0.0
1.2962104639 -0.00329984470234 0.0
1.28285216506 0.00129188564418 0.0
1.31658323334 0.00225947629794 0.0
1.27731492212 0.0113177650145 0.0
1.31865100717 -0.0119021721672 0.0
1.2574406389 -0.0623444986226 0.0
1.32006490024 -0.00225867191836 0.0
1.27784403787 -0.00300188087927 0.0
1.29838449733 -0.00686329126938 0.0
1.2707102894 -0.00166315572381 0.0
1.28284666855 0.0003852901235 0.0
1.20672339788 0.041389399433 0.0
1.33387325215 -0.00320786253069 0.0
1.26512078906 0.000521844322043 0.0
1.28405709378 0.00235444618001 0.0
1.29825927702 -0.00895502189585 0.0
1.30180818824 0.0101849940939 0.0
0.956745123244 -0.124131384534 0.0
1.30815984161 -0.0115875160842 0.0
1.31330967053 0.0210003962857 0.0
1.44156292828 0.000732952223481 0.0
1.43487331658 0.00973526000898 0.0
1.28598058918 0.000413956280591 0.0
0.994830578437 0.0805343841706 0.0
0.727016089706 -0.00994742351286 0.0
1.07928574928 0.12359007665 0.0
1.03489616561 -0.0989450323001 0.0
1.30958640136 -0.00677899760718 0.0
1.33226402242 -0.0105234195646 0.0
1.2490115255 0.0187075846425 0.0
1.40359130771 -0.017228129482 0.0
1.37470510203 0.0312752880068 0.0
0.835009394304 0.0696970555662 0.0
0.742570191192 0.0291330980994 0.0
1.17644368577 -0.155784900279 0.0
0.828959359464 -0.0671548441176 0.0
1.40185039124 -0.0136540329258 0.0
1.40902028037 0.0268395574828 0.0
0.645731430625 0.0218338784898 0.0
0.680296846642 0.00972857803523 0.0
0.648145280241 -0.0224157996896 0.0
1.42336447003 0.019729424496 0.0
1.41181842784 -0.0114517216959 0.0
1.38334928117 -0.00649542232747 0.0
1.36063572637 0.00786746898608 0.0
1.42156538481 0.0149845099749 0.0
1.40890403188 -0.0110015403372 0.0
1.41752232194 0.0130432181837 0.0
1.38928875193 -0.00495552593214 0.0
0.68587486387 0.00884972366032 0.0
0.677490473391 -0.0091380858514 0.0
1.41136746231 0.00430592285157 0.0
0.688262204673 0.00952668373335 0.0
0.673810263549 -0.00753501796267 0.0
0.699719198935 0.0150865601623 0.0
0.662237197521 -0.00812728115257 0.0
0.832014957387 -0.0269134235018 0.0
0.693649770927 -0.0216926285782 0.0
0.719469568877 -0.00117976691678 0.0
0.71839566899 -0.0100882252821 0.0
0.771847241959 0.0382681410309 0.0
0.677885500879 -0.0211851786808 0.0
0.718913296934 0.00397829729674 0.0
0.692896399458 -0.00522132689842 0.0
0.604459315595 0.0284973202597 0.0
1.23259917378 -0.0898901400322 0.0
0.799736570901 -0.000501568243443 0.0
0.639229467104 0.0234218724962 0.0

SCALARS scalar1 double
LOOKUP_TABLE default
3.48256094568
5.90059391977
6.13178020867
6.29641125608
-5.78141570627
-2.40399702906
11.412048716
10.1198364406
7.6497953647
6.78142318642
6.12108676335
6.09141121736
6.04260169608
5.70222039045
6.08124673244
5.8422712039
5.85685367873
5.96561270562
6.07156797403
6.03689395422
6.02824988045
6.1485719898
6.08610757114
6.06717360015
6.16647538168
6.08108523494
5.96370538225
6.26716474145
6.48760916219
6.30405654217
7.92707638384
4.81114215384
8.09706785793
6.57504156966
6.80610709785
6.62134629224
6.20187959632
6.22867959256
6.3049397085
6.16027361849
6.1679096852
6.25508219337
6.1519798894
6.05402832159
6.06228584586
6.32237292695
5.87385130357
6.10507319419
6.02460613859
5.73344279315
5.83604518988
5.75866843337
6.32531826041
6.03032568671
3.24110711968
0.971457195922
-0.938307573633
-3.12660319477
-6.13875586717
-6.25047338318
-5.76582388077
-5.41573249538
-5.61423581288
-5.44775787161
-5.9588135955
-5.62545533338
-5.44502690682
-5.76719598992
-5.58612359477
-5.40207711274
-5.75647424124
-5.59376760235
-5.40726360595
-5.78873249097
-5.70103273994
-5.41656291493
-5.7591334949
-7.03253900249
-4.79147709725
-5.78537585091
-5.66461525921
-5.6516562545
-5.74414061414
-4.74441563387
-6.94080326543
-5.70822960917
-5.39678082202
-5.69343747867
-5.78390303123
-5.42585314686
-5.62783216132
-5.79408449667
-5.44820873937
-5.66132509917
-5.84672996247
-5.53978984304
-5.79490152108
-6.05923880873
-5.80463802258
-6.1362147558
-6.77584513715
-6.25802871594
-6.57538237096
-6.70355054628
-7.48753510534
-9.59756828456
-10.589960541
2.53081213108
-0.09046433795
-0.00486450496489
-3.44653868762
-0.202848143124
0.323465490814
0.437797605199
0.444757916933
0.436164064092
0.625535750748
0.814805777025
0.657958402847
0.803766329728
0.685993856126
0.751712086205
0.526581812088
0.644583321937
-0.00470186318817
0.023663513332
-0.0616879560996
2.05262891403
-1.1225440195
-1.72095304372
-1.40440940025
-1.56509033336
-1.36328255016
-1.34011722626
-1.47079726685
-1.33563960163
-1.35410473777
-1.37556084848
1.63344261762
1.05872952596
-1.09350346346
-1.5229895798
1.65920354364
1.63513283051
-0.319563435809
-1.42458581325
1.76170212116
1.87881785174
1.39641641193
1.83436381181
1.75647378231
1.93782357961
1.80140637494
1.95522522376
1.86116292326
0.742713905683
-1.94348539266
-1.78497774908
-1.83862142877
1.45691789249
1.62059594488
1.21743160882
2.43576160973
2.44784836457
2.217463058
-2.41731903843
-1.91999141339
-1.79082432031
-2.75120436309
2.4659685364
2.46183719787
-2.40716273162
-2.30286830356
-2.31547427611
-2.3111549155
-2.27634969584
-2.28848792299
-2.35224433224
-2.29570894931
3.32917474345
3.32973206533
3.38661729732
3.34754327129
3.37407903098
3.19717205092
3.30453486781
3.70328404777
3.84242797826
-3.26102030528
-2.45198889914
-2.75015203962
-2.59628939188
1.78649130104
-0.0876262381811
-0.0169616958139
-3.69661127146
-2.95530897033
0.046716366213
-0.197480390293
3.78467031794
3.09528439482
3.78673025566
-0.748835099408
-3.31176804713
-3.41015554377
-3.34329372398
-2.94613099667
-3.27478547753
-3.34411681824
-3.29330253564
-3.31780551099
-3.42764184362
-3.38041454414
-3.37777067222
3.66647236166
3.51910328124
3.62975828179
3.41116118961
3.31345113818
3.60243957308
3.68684813048
3.55580085595
-0.181549198936
-0.212271420788
3.75509756028
3.69372497969
0.224938777563
0.390985490624
3.81684089297
3.83109883312
3.83076068731
3.76611959266
3.79102278536
3.73431216365
3.85589313301
0.297959753487
0.40269367012
0.231464938507
0.362183856785
0.0106113823873
0.286805102356
0.0740726583831
0.152380963321
0.337993631666
0.104013116651
-0.038931586466
0.119612331056
0.0732549179246
0.226888059256
0.303955846068
0.108435478167
0.395464497814
0.193795458706
0.380495642995
0.122443004593
0.439944986301
0.323066768943
0.468378526696
0.333498380627
3.7633239672
3.81890087794
3.65673816674
3.64993904113
3.72575050407
3.83968045595
3.79398182781
3.80734889493
3.8190653486
-3.26927370727
-3.18568153944
0.0166234931976
-3.86021144617
-3.41826441336
-2.95220817277
1.65787904057
-0.599447640715
-3.80729059563
-3.77286442734
-3.71637937651
-3.81229101141
-3.88588494078
-3.88547633051
-3.6632757099
-3.71926442136
-3.67490911478
-3.67329830012
-1.18916836971
-0.364863458805
-3.68692251054
-1.21588636826
-0.876644072241
-3.34692762452
3.750702713
-0.970762460786
-1.10414319266
3.69830227304
-3.34992027497
-0.991230946142
-1.0383675917
-1.06373892955
-1.01462527739
3.85778753452
-1.09846115678
-1.39472726032
-1.45409420545
1.54247772169
1.52558862872
1.6531005153
1.82052500865
1.36247505917
1.87224004565
1.87551665356
1.82064961159
1.89392654936
1.92744374628
1.9292557623
1.59075889008
1.13608866597
1.86704250229
1.72363697634
1.57875278466
1.56831050662
1.59389166939
0.754604074967
1.49148937645
1.97623907862
1.49314370717
2.02202073498
1.81584347571
0.24822445268
-1.41889785253
2.01931043254
1.83179574979
-1.23024257444
-1.29840084886
3.62127431011
1.3406821863
1.5311298744
0.323688600201
0.309449785166
-1.82842155836
1.13710159627
-4.33823559193
-3.48081527185
-1.59976342371
1.90015434457
-1.33238097205
-0.0361138546783
-0.873703900524
-0.296528532744
-3.78183586625
4.34092626409
3.71722139584
-3.91991855297
-0.859089721029
-0.605693389487
-4.15549127297
-4.06979002247
-4.14770006532
-0.628303695696
-0.727223509326
-1.12924400278
-1.05680036192
-0.651988800443
-0.684977654312
-0.69039835033
-0.804688460204
-4.08297816698
-4.08305063621
-0.835435329835
-4.14856675799
-4.08370740643
-4.27124627504
-4.14193010811
4.40956771245
4.33473953954
4.40380417073
4.26216968693
-4.27155142099
-4.18138290816
4.49183156993
4.32974753455
4.82899666283
1.11688408735
-4.30878314627
-4.23108073349

SCALARS scalar2 double
LOOKUP_TABLE default
3.48256094568
5.90059391977
6.13178020867
6.29641125608
-5.78141570627
-2.40399702906
11.412048716
10.1198364406
7.6497953647
6.78142318642
6.12108676335
6.09141121736
6.04260169608
5.70222039045
6.08124673244
5.8422712039
5.85685367873
5.96561270562
6.07156797403
6.03689395422
6.02824988045
6.1485719898
6.08610757114
6.06717360015
6.16647538168
6.08108523494
5.96370538225
6.26716474145
6.48760916219
6.30405654217
7.92707638384
4.81114215384
8.09706785793
6.57504156966
6.80610709785
6.62134629224
6.20187959632
6.22867959256
6.3049397085
6.16027361849
6.1679096852
6.25508219337
6.1519798894
6.05402832159
6.06228584586
6.32237292695
5.87385130357
6.10507319419
6.02460613859
5.73344279315
5.83604518988
5.75866843337
6.32531826041
6.03032568671
3.24110711968
0.971457195922
-0.938307573633
-3.12660319477
-6.13875586717
-6.25047338318
-5.76582388077
-5.41573249538
-5.61423581288
-5.44775787161
-5.9588135955
-5.62545533338
-5.44502690682
-5.76719598992
-5.58612359477
-5.40207711274
-5.75647424124
-5.59376760235
-5.40726360595
-5.78873249097
-5.70103273994
-5.41656291493
-5.7591334949
-7.03253900249
-4.79147709725
-5.78537585091
-5.66461525921
-5.6516562545
-5.74414061414
-4.74441563387
-6.94080326543
-5.70822960917
-5.39678082202
-5.69343747867
-5.78390303123
-5.42585314686
-5.62783216132
-5.79408449667
-5.44820873937
-5.66132509917
-5.84672996247
-5.53978984304
-5.79490152108
-6.05923880873
-5.80463802258
-6.1362147558
-6.77584513715
-6.25802871594
-6.57538237096
-6.70355054628
-7.48753510534
-9.59756828456
-10.589960541
2.53081213108
-0.09046433795
-0.00486450496489
-3.44653868762
-0.202848143124
0.323465490814
0.437797605199
0.444757916933
0.436164064092
0.625535750748
0.814805777025
0.657958402847
0.803766329728
0.685993856126
0.751712086205
0.526581812088
0.644583321937
-0.00470186318817
0.023663513332
-0.0616879560996
2.05262891403
-1.1225440195
-1.72095304372
-1.40440940025
-1.56509033336
-1.36328255016
-1.34011722626
-1.47079726685
-1.33563960163
-1.35410473777
-1.37556084848
1.63344261762
1.05872952596
-1.09350346346
-1.5229895798
1.65920354364
1.63513283051
-0.319563435809
-1.42458581325
1.76170212116
1.87881785174
1.39641641193
1.83436381181
1.75647378231
1.93782357961
1.80140637494
1.95522522376
1.86116292326
0.742713905683
-1.94348539266
-1.78497774908
-1.83862142877
1.45691789249
1.62059594488
1.21743160882
2.43576160973
2.44784836457
2.217463058
-2.41731903843
-1.91999141339
-1.79082432031
-2.75120436309
2.4659685364
2.46183719787
-2.40716273162
-2.30286830356
-2.31547427611
-2.3111549155
-2.27634969584
-2.28848792299
-2.35224433224
-2.29570894931
3.32917474345
3.32973206533
3.38661729732
3.34754327129
3.37407903098
3.19717205092
3.30453486781
3.70328404777
3.84242797826
-3.26102030528
-2.45198889914
-2.75015203962
-2.59628939188
1.78649130104
-0.0876262381811
-0.0169616958139
-3.69661127146
-2.95530897033
0.046716366213
-0.197480390293
3.78467031794
3.09528439482
3.78673025566
-0.748835099408
-3.31176804713
-3.41015554377
-3.34329372398
-2.94613099667
-3.27478547753
-3.34411681824
-3.29330253564
-3.31780551099