# vtk DataFile Version 2.0
2D Simulation Python
ASCII
DATASET UNSTRUCTURED_GRID
FIELD FieldData 1
NODES 1 2 int
386 659

POINTS 386 double
0.0 1.0 0.0
1.725 1.0 0.0
8.275 1.0 0.0
10.0 1.0 0.0
10.0 0.0 0.0
0.0 0.0 0.0
0.1916666666663293 1.0 0.0
0.3833333333324708 1.0 0.0
0.574999999998553 1.0 0.0
0.7666666666645966 1.0 0.0
0.9583333333312576 1.0 0.0
1.149999999998384 1.0 0.0
1.341666666665662 1.0 0.0
1.533333333332819 1.0 0.0
1.92348484848444 1.0 0.0
2.121969696968978 1.0 0.0
2.320454545453434 1.0 0.0
2.518939393937826 1.0 0.0
2.717424242422235 1.0 0.0
2.915909090906411 1.0 0.0
3.1143939393908 1.0 0.0
3.312878787875129 1.0 0.0
3.511363636359531 1.0 0.0
3.709848484843827 1.0 0.0
3.90833333332816 1.0 0.0
4.106818181812215 1.0 0.0
4.305303030296804 1.0 0.0
4.503787878781365 1.0 0.0
4.702272727265711 1.0 0.0
4.900757575750005 1.0 0.0
5.099242424235156 1.0 0.0
5.297727272720327 1.0 0.0
5.496212121205663 1.0 0.0
5.694696969690998 1.0 0.0
5.89318181817668 1.0 0.0
6.09166666666213 1.0 0.0
6.290151515147423 1.0 0.0
6.488636363633031 1.0 0.0
6.687121212118713 1.0 0.0
6.885606060604342 1.0 0.0
7.084090909089381 1.0 0.0
7.282575757574369 1.0 0.0
7.481060606059355 1.0 0.0
7.679545454544343 1.0 0.0
7.878030303029329 1.0 0.0
8.076515151514705 1.0 0.0
8.46666666666447 1.0 0.0
8.658333333329285 1.0 0.0
8.84999999999549 1.0 0.0
9.041666666661694 1.0 0.0
9.233333333327899 1.0 0.0
9.42499999999549 1.0 0.0
9.616666666663775 1.0 0.0
9.808333333331985 1.0 0.0
10.0 0.7999999999999998 0.0
10.0 0.6000000000013869 0.0
10.0 0.4000000000016644 0.0
10.0 0.2000000000008322 0.0
9.799999999999999 0.0 0.0
9.6 0.0 0.0
9.399999999999999 0.0 0.0
9.2 0.0 0.0
8.999999999999998 0.0 0.0
8.799999999999997 0.0 0.0
8.599999999999998 0.0 0.0
8.399999999999997 0.0 0.0
8.199999999999998 0.0 0.0
7.999999999999997 0.0 0.0
7.799999999999997 0.0 0.0
7.599999999999998 0.0 0.0
7.399999999999997 0.0 0.0
7.199999999999998 0.0 0.0
6.999999999999997 0.0 0.0
6.799999999999997 0.0 0.0
6.599999999999998 0.0 0.0
6.399999999999997 0.0 0.0
6.199999999999998 0.0 0.0
5.999999999999997 0.0 0.0
5.799999999999998 0.0 0.0
5.599999999999998 0.0 0.0
5.399999999999999 0.0 0.0
5.199999999999998 0.0 0.0
4.999999999999999 0.0 0.0
4.799999999999999 0.0 0.0
4.599999999999999 0.0 0.0
4.399999999999999 0.0 0.0
4.199999999999999 0.0 0.0
3.999999999999999 0.0 0.0
3.799999999999999 0.0 0.0
3.599999999999999 0.0 0.0
3.399999999999998 0.0 0.0
3.199999999999998 0.0 0.0
2.999999999999999 0.0 0.0
2.799999999999998 0.0 0.0
2.599999999999998 0.0 0.0
2.399999999999999 0.0 0.0
2.199999999999999 0.0 0.0
1.999999999999998 0.0 0.0
1.799999999999999 0.0 0.0
1.6 0.0 0.0
1.4 0.0 0.0
1.199999999999999 0.0 0.0
0.9999999999999982 0.0 0.0
0.7999999999999989 0.0 0.0
0.6000000000000014 0.0 0.0
0.3999999999999986 0.0 0.0
0.1999999999999993 0.0 0.0
0.0 0.1999999999995579 0.0
0.0 0.3999999999989749 0.0
0.0 0.5999999999989468 0.0
0.0 0.7999999999994734 0.0
0.6587147201466775 0.5450964013132781 0.0
9.341285198663755 0.5450963705686732 0.0
8.741996488826734 0.565620239161517 0.0
1.2580021648511956 0.5656211641083986 0.0
8.163843926398824 0.570243794660855 0.0
1.8361420007356277 0.5702599968045506 0.0
2.4292726732778314 0.5951543600198451 0.0
7.570624632327926 0.5949689621377442 0.0
3.0291636086158107 0.5992112335914221 0.0
6.970226137731948 0.5976749955097462 0.0
3.6272788221370544 0.5982059591220601 0.0
6.368986691917814 0.5888671181480901 0.0
4.228223600547322 0.5888811775973293 0.0
5.795699482806281 0.526513171778449 0.0
4.801739390532528 0.5264778676484795 0.0
5.298739096101791 0.5188305726547838 0.0
9.677480321904897 0.7001733883077246 0.0
0.32251966756467854 0.7001733908706824 0.0
4.529664603093584 0.33664271793765976 0.0
3.9176123221249677 0.3699432071541327 0.0
6.068676345762384 0.33666553958848927 0.0
3.3181539658574764 0.3739168113337654 0.0
6.680700964135974 0.36977342884208275 0.0
7.879953682611178 0.36503255350906316 0.0
2.1200100120726835 0.36508856451027266 0.0
2.718970434936179 0.37293361911240996 0.0
7.280800550320091 0.3723925461329451 0.0
9.037550834193569 0.6713264332257998 0.0
0.9624488784554581 0.6713265734130857 0.0
1.5314108485965638 0.35844929487034466 0.0
8.46858487399265 0.35844518112377 0.0
8.459001785043599 0.6780306780891576 0.0
1.5409944303496719 0.6780339484840698 0.0
0.9791098185502802 0.3641043578525706 0.0
9.020889796366138 0.3641041396416829 0.0
4.5263433219204305 0.6888767338912265 0.0
3.9202192809287455 0.6994047365411002 0.0
6.070392005521563 0.6889048294024301 0.0
2.1173993782774416 0.6895548366102878 0.0
7.882568778810909 0.6895101178489375 0.0
3.322131580995311 0.7023764950234843 0.0
6.676579918863391 0.6992815983418459 0.0
2.7242578426474897 0.7014793919592005 0.0
7.275526349284647 0.7010324511457444 0.0
0.33280962726563657 0.3032906441166002 0.0
9.667190358699239 0.30329064005079887 0.0
5.581575266986794 0.32031107266339054 0.0
5.016828566662155 0.3202909299332521 0.0
5.50962836757709 0.6930426619606509 0.0
5.087085631692824 0.693027317303593 0.0
0.6618009610339197 0.7348693729388377 0.0
9.338198984479295 0.7348693541425778 0.0
8.748056085366498 0.7386311350773175 0.0
1.251942985238022 0.7386317362363211 0.0
8.670847012618049 0.27467160618600506 0.0
1.3291513615768822 0.274672929411564 0.0
0.6803063116775125 0.2362998906310608 0.0
9.319693620315352 0.23629986175326523 0.0
8.170681059192825 0.742918826425113 0.0
1.8293091312982122 0.742929522133278 0.0
8.08300528181759 0.276205764337916 0.0
1.9169790759506866 0.27622655240669947 0.0
7.486091006406366 0.28328985353402253 0.0
2.513800803362854 0.2835143722305209 0.0
6.886095946889223 0.28376159791619054 0.0
3.1133468800731454 0.28561801077840515 0.0
6.285678042985837 0.26943128960921825 0.0
3.7127090660089124 0.28409718472475953 0.0
2.421754467589231 0.8104790340768323 0.0
7.578186727310543 0.8103775027180563 0.0
3.020816762714086 0.8131372427863202 0.0
6.978819696528261 0.812311038108311 0.0
3.617636262001723 0.8126214259058209 0.0
6.3800740572752135 0.8085466399826108 0.0
4.216182838942347 0.8085530415793658 0.0
5.793865331448659 0.842432854728519 0.0
4.802225227929648 0.8424158341603323 0.0
5.29953703758235 0.18499943679265157 0.0
4.3130030119623095 0.26943482307942584 0.0
4.742653889536218 0.23690388247288502 0.0
5.8561597468240105 0.23692708617377284 0.0
5.298310447634998 0.7161296490840716 0.0
0.19482121931555255 0.501898133672185 0.0
9.805178773890914 0.5018981320407615 0.0
9.487001933710783 0.16201263713011055 0.0
0.5129980446684037 0.16201264481000124 0.0
9.568982352807987 0.5116611460172691 0.0
0.43101762039263797 0.5116611541149577 0.0
9.509173794485143 0.8360204639479617 0.0
0.4908261901733388 0.8360204682531778 0.0
9.823690776421655 0.8276153374716837 0.0
0.17630922110516128 0.8276153379427653 0.0
7.691284589244141 0.19120771151459406 0.0
2.3086739270256444 0.191283190054877 0.0
8.876901749395667 0.19095494014373487 0.0
1.1230977434170546 0.1909552889735362 0.0
7.091539221238225 0.19332071295084519 0.0
2.908229682986884 0.19399244809875363 0.0
6.4916612088292815 0.1885342948159703 0.0
3.507770767496168 0.19383441488519426 0.0
1.7128543071772828 0.1869057942147682 0.0
8.287140239625831 0.18689952807581303 0.0
4.107441334373509 0.188577399622519 0.0
8.5779387660671 0.8274677765502307 0.0
1.4220597977377913 0.8274688983685508 0.0
8.923556301300374 0.8254546278371442 0.0
1.0764433904131006 0.8254547966505259 0.0
0.8417436798491627 0.8242769993919347 0.0
9.158256219637058 0.8242769556810203 0.0
8.346330200792611 0.8284374573439137 0.0
1.653666113403638 0.8284409505251286 0.0
5.592757060362711 0.5031369431866549 0.0
5.004792319056676 0.5031128663219355 0.0
7.789990771244178 0.8379562863762129 0.0
2.2099833807173 0.837994911028301 0.0
7.778004707132094 0.5491751657130073 0.0
2.2219403027983136 0.5492620912672752 0.0
2.8146062044098064 0.843210168602693 0.0
7.185222491461221 0.8428498602535505 0.0
3.411325331272589 0.8434325926005494 0.0
6.587621313869706 0.8412470298718268 0.0
4.008522412264538 0.8412904166176026 0.0
5.985196778746039 0.8425137553720281 0.0
4.610894870840151 0.8424959044065139 0.0
7.176407752729969 0.5567898191997083 0.0
2.823246152746897 0.557593686392545 0.0
6.57635170175826 0.5524017824768827 0.0
3.4216539848302556 0.5579509807873791 0.0
5.978782159547019 0.5297742315476055 0.0
4.0210764545275195 0.5524986551690111 0.0
4.618648565711635 0.5297388847980804 0.0
8.549729631816739 0.5384690554328503 0.0
1.4502672221724484 0.5384716716536728 0.0
1.0629186819177852 0.530180747163179 0.0
0.872013673575789 0.5228563896368735 0.0
8.937080743213295 0.5301804176612688 0.0
9.127986093459864 0.5228562793586897 0.0
4.433082543192102 0.54404211611307 0.0
1.6364552356123359 0.5345556773517136 0.0
8.363537949829245 0.5345489583345873 0.0
2.0317718646333196 0.5464788476809203 0.0
7.96819946292995 0.5464398746124702 0.0
3.82937065880716 0.5608620567285794 0.0
6.164297915154536 0.5440645709876699 0.0
3.230767062491206 0.5636687246990122 0.0
6.768115575971469 0.5606166659541721 0.0
2.6318906299695195 0.5618428342908518 0.0
7.367913635087271 0.5614390073634533 0.0
4.4211885220925335 0.838848175133584 0.0
3.8212022854395844 0.84251628721053 0.0
6.174923995450848 0.8388608469829628 0.0
1.9986253358771444 0.8323539891445696 0.0
8.001361992216088 0.8323379204494428 0.0
3.2244224691678496 0.8437181892152782 0.0
6.774986629348415 0.8424017209640379 0.0
2.627242781197662 0.8427522578692852 0.0
7.372660347272368 0.8425664927917935 0.0
4.9216691293357435 0.18257355270447453 0.0
5.677411939663477 0.18258932088576138 0.0
0.16562652790793217 0.1566623794107017 0.0
9.83437346880925 0.15666237862341414 0.0
9.136653466447124 0.1820665008123623 0.0
0.8633463887802973 0.18206657977451646 0.0
9.48702168149123 0.6655175587847155 0.0
0.5129782873273365 0.6655175681224984 0.0
1.4799479493642194 0.15735572574993692 0.0
8.520050151056726 0.157353915773363 0.0
7.925611834051457 0.15938075941450774 0.0
2.0743716874206926 0.15940595630305765 0.0
6.138406772169611 0.14497035273933798 0.0
4.460871675657264 0.14496243905550407 0.0
[...]
POINT_DATA 386
VECTORS vector double
1.0 0.0 0.0
0.0 0.0 0.0
0.0 0.0 0.0
0.0 0.0 0.0
0.0 0.0 0.0
1.0 0.0 0.0
0.0 0.0 0.0
0.0 0.0 0.0
0.0 0.0 0.0
0.0 0.0 0.0
0.0 0.0 0.0
0.0 0.0 0.0
0.0 0.0 0.0
0.0 0.0 0.0
0.0 0.0 0.0
0.0 0.0 0.0
0.0 0.0 0.0
0.0 0.0 0.0
0.0 0.0 0.0
0.0 0.0 0.0
0.0 0.0 0.0
0.0 0.0 0.0
0.0 0.0 0.0
0.0 0.0 0.0
0.0 0.0 0.0
0.0 0.0 0.0
0.0 0.0 0.0
0.0 0.0 0.0
0.0 0.0 0.0
0.0 0.0 0.0
0.0 0.0 0.0
0.0 0.0 0.0
0.0 0.0 0.0
0.0 0.0 0.0
0.0 0.0 0.0
0.0 0.0 0.0
0.0 0.0 0.0
0.0 0.0 0.0
0.0 0.0 0.0
0.0 0.0 0.0
0.0 0.0 0.0
0.0 0.0 0.0
0.0 0.0 0.0
0.0 0.0 0.0
0.0 0.0 0.0
0.0 0.0 0.0
0.0 0.0 0.0
0.0 0.0 0.0
0.0 0.0 0.0
0.0 0.0 0.0
0.0 0.0 0.0
0.0 0.0 0.0
0.0 0.0 0.0
0.0 0.0 0.0
0.984535301862 0.0887596283714 0.0
1.35053068493 -0.00194373170811 0.0
1.34529585434 -0.00643390963203 0.0
0.995369144909 -0.0857838260336 0.0
0.0 0.0 0.0
0.0 0.0 0.0
0.0 0.0 0.0
0.0 0.0 0.0
0.0 0.0 0.0
0.0 0.0 0.0
0.0 0.0 0.0
0.0 0.0 0.0
0.0 0.0 0.0
0.0 0.0 0.0
0.0 0.0 0.0
0.0 0.0 0.0
0.0 0.0 0.0
0.0 0.0 0.0
0.0 0.0 0.0
0.0 0.0 0.0
0.0 0.0 0.0
0.0 0.0 0.0
0.0 0.0 0.0
0.0 0.0 0.0
0.0 0.0 0.0
0.0 0.0 0.0
0.0 0.0 0.0
0.0 0.0 0.0
0.0 0.0 0.0
0.0 0.0 0.0
0.0 0.0 0.0
0.0 0.0 0.0
0.0 0.0 0.0
0.0 0.0 0.0
0.0 0.0 0.0
0.0 0.0 0.0
0.0 0.0 0.0
0.0 0.0 0.0
0.0 0.0 0.0
0.0 0.0 0.0
0.0 0.0 0.0
0.0 0.0 0.0
0.0 0.0 0.0
0.0 0.0 0.0
0.0 0.0 0.0
0.0 0.0 0.0
0.0 0.0 0.0
0.0 0.0 0.0
0.0 0.0 0.0
0.0 0.0 0.0
0.0 0.0 0.0
0.0 0.0 0.0
0.0 0.0 0.0
1.0 0.0 0.0
1.0 0.0 0.0
1.0 0.0 0.0
1.0 0.0 0.0
1.23563606431 -0.0449693419021 0.0
1.36942546585 -0.0164494443303 0.0
1.37166751626 -0.0132693992901 0.0
1.33177554244 0.000195020027224 0.0
1.37137831313 -0.00837510769603 0.0
1.35982807542 0.0120781977774 0.0
1.35300587014 0.00528836013485 0.0
1.35643172517 -0.00519788229727 0.0
1.35170845408 0.00114960145497 0.0
1.35116457666 0.000210393283325 0.0
1.35177200263 -0.00399143684183 0.0
1.34348370561 0.000951281635182 0.0
1.35330242536 -0.00559598361971 0.0
1.33603409015 0.000495551381167 0.0
1.3545958398 0.00675177158397 0.0
1.3686970534 -0.0116734407927 0.0
1.2547583505 0.0014762171389 0.0
1.14297384502 -0.121735298019 0.0
1.24056677132 0.0105181095958 0.0
1.287744595 0.000562815614685 0.0
1.23439261798 0.0038863865114 0.0
1.29300832841 0.0041889204519 0.0
1.28002358104 0.00303513657261 0.0
1.27951530626 -0.00536339395929 0.0
1.30445949374 0.0136849150855 0.0
1.30055397368 0.00767091469549 0.0
1.28097681246 -0.00136251282029 0.0
1.30519156768 -0.00998343968073 0.0
1.26579171541 -0.0232137475752 0.0
1.30962399335 0.0255759543547 0.0
1.2827350946 -0.0112999805411 0.0
1.31319429888 -0.00749636307249 0.0
1.27663802915 0.013647077558 0.0
1.29608860506 0.0145541664292 0.0
1.30613542058 -0.0200354280471 0.0
1.27630807993 0.00510077540038 0.0
1.25734818636 0.00465127719964 0.0
1.2674580596 0.0090447768166 0.0
1.26807847688 0.0192417987596 0.0
1.28841817576 -0.00968953917805 0.0
1.25346383345 0.00800013690409 0.0
1.25901014585 0.00515605850201 0.0
1.24854292134 0.011975261578 0.0
1.26167181589 0.00209692450774 0.0
1.11080544101 0.0865665681592 0.0
1.25869870654 -0.00792682169876 0.0
1.2001611432 -0.00504485010503 0.0
1.19981735426 -0.00748295366459 0.0
1.23089053005 0.0134778104521 0.0
1.23485172017 -0.0208566984847 0.0
1.19758074612 -0.0711365356605 0.0
1.19827276089 -0.0136555613334 0.0
1.20423620732 -0.0122704285111 0.0
1.1655647129 -0.00440618682999 0.0
1.15202455524 -0.000768713631874 0.0
1.19449469509 0.0143514508646 0.0
1.15536236486 0.0277685171349 0.0
1.12865892421 -0.0078567778514 0.0
1.21313520832 -0.0096502462857 0.0
1.18196843285 0.00538339402411 0.0
1.14445545673 0.00614945101549 0.0
1.17863018974 0.00221735792211 0.0
1.15067535775 0.00873599323442 0.0
1.17461659303 -0.00372889999146 0.0
1.15331869586 0.0112920495868 0.0
1.16748072559 -0.00678423571066 0.0
1.14601663936 0.0139590117212 0.0
1.16136343779 -0.00848311710595 0.0
1.02873642224 -0.000150175576372 0.0
1.06033897133 -0.0026906763187 0.0
1.03871673104 0.00047340439834 0.0
1.05909988091 -0.00375634836861 0.0
1.04764867979 -0.00198596957539 0.0
1.06852581079 -0.00386192002045 0.0
1.05806144825 -0.00424846021214 0.0
0.967354947661 0.00299052303951 0.0
0.973600740863 0.00591484599746 0.0
0.95200991618 -0.00906111268465 0.0
1.14282951073 -0.00506666961412 0.0
0.985025848279 -0.0237619257035 0.0
1.00563320841 0.0283891997357 0.0
1.17652800232 -0.00869588266771 0.0
0.991830681829 -0.0105871492788 0.0
1.38540002037 -0.00706820553391 0.0
0.905179527106 0.00070302583453 0.0
1.04905455956 0.0563938441999 0.0
1.39008075685 -0.00748297416263 0.0
1.11910623245 -0.0253446426984 0.0
0.885319608457 -0.00920907724888 0.0
1.08675886773 -0.0805047873798 0.0
0.858218542259 -0.0526998500925 0.0
1.19248545548 -0.176656204082 0.0
0.936183777806 -0.00757720370605 0.0
0.958257213984 0.0102024930398 0.0
0.9587435717 -0.0182397075901 0.0
1.03103598808 0.0248877267929 0.0
0.942925552308 -0.00718534223876 0.0
0.953882552458 0.00826617814768 0.0
0.939188674617 -0.00648203570967 0.0
0.948776210335 0.00735580190728 0.0
0.974652192294 0.0180216665181 0.0
0.931902381375 -0.0114378173464 0.0
0.936451650268 0.00771215183316 0.0
0.960441856763 -0.0136520419391 0.0
0.920240903536 0.011472712701 0.0
0.949394481519 0.00501521535525 0.0
0.935591862556 -0.0213289043957 0.0
0.973131062439 -0.0204376768866 0.0
0.943279748644 -0.0169327312556 0.0
0.965623883591 0.00724015592794 0.0
0.927370238361 -0.00569825509192 0.0
1.33793430312 -0.0190224403861 0.0
1.34763761372 0.0123972225688 0.0
0.952927452759 -0.0133453052376 0.0
0.920316907937 0.0156203468969 0.0
1.38965732288 -0.00338696515426 0.0
1.3888693371 0.00835124922875 0.0
0.932217429423 0.00696704242258 0.0
0.954307801852 -0.00308033937101 0.0
0.943747624632 0.00565217375031 0.0
0.95980616418 -0.00447140708171 0.0
0.951681349246 0.00564199454295 0.0
0.972454106658 0.00955009838491 0.0
0.963628932206 0.000767444012991 0.0
1.38247539796 0.00428092633119 0.0
1.38548271405 0.00276155686164 0.0
1.37593287733 0.0085750882117 0.0
1.38241001002 -0.00200296562818 0.0
1.35073436673 0.00887622688784 0.0
1.38200920871 -0.00645941268158 0.0
1.37704026101 0.00648609449327 0.0
1.38611127975 -0.0110689753428 0.0
1.36861441673 0.0178324929113 0.0
1.33175809425 -0.00681049702787 0.0
1.30307103818 -0.0221871886617 0.0
1.39133200368 -0.0154178953489 0.0
1.38409687382 -0.0213108433249 0.0
1.37529554072 0.00113869973788 0.0
1.38368270331 0.0176047829065 0.0
1.39699842962 -0.0113374454218 0.0
1.38377209492 0.018209561832 0.0
1.38205864321 -0.00761416248886 0.0
1.37414229974 0.00681712102776 0.0
1.34864045209 0.00728091006752 0.0
1.37507765818 0.0116233541931 0.0
1.36436065611 -0.00154673992949 0.0
1.37830770376 0.0164305602178 0.0
1.37023284704 -0.00574903149854 0.0
0.95235490279 -0.00946169652183 0.0
0.945011366263 -0.000683012098844 0.0
0.972474676658 0.0120494193963 0.0
0.936594392235 0.0240165556983 0.0
0.975800968521 -0.0225137778061 0.0
0.936685008107 0.000552717402488 0.0
0.960686871292 0.00343028347799 0.0
0.923630595573 0.00145512886454 0.0
0.956824687933 0.00412449225452 0.0
0.921614744187 0.0443073576423 0.0
0.954052993819 -0.0500888955809 0.0
1.10665074487 0.143843934747 0.0
0.897558119859 -0.0220818181571 0.0
0.949991881676 0.00246897949403 0.0
1.02892230329 0.00188617652115 0.0
1.29828787536 -0.0229933689586 0.0
1.23052689071 -0.110267012216 0.0
0.900192924184 0.00410805639147 0.0
0.84693581271 0.00533960543281 0.0
0.841080268292 0.00923768033208 0.0
0.865729220431 -0.00475699005227 0.0
0.822861016326 0.0249751772417 0.0
0.80404776727 -0.0174575328178 0.0
0.850600019673 0.00995933794032 0.0
0.861598943611 -0.00757848924626 0.0
0.851860575839 0.0089503401284 0.0
0.857327278281 -0.00795974020247 0.0
1.32060456653 -0.0122417723772 0.0
1.3185403038 0.0142537553585 0.0
0.850631893175 -0.00691734311028 0.0
1.31560431017 -0.00254840920119 0.0
1.33715387621 0.0134941724057 0.0
0.909700582476 -0.0066504891535 0.0
1.02903839836 0.124555807855 0.0
1.34126157766 0.00166693850306 0.0
1.32066501644 0.00394041232035 0.0
0.971421354592 -0.0213290406939 0.0
0.929643239838 -0.00658457830572 0.0
1.33417444504 -0.00304416862395 0.0
1.31874106109 0.00809957346992 0.0
1.31096670378 0.0129073892494 0.0
1.32810768928 -0.00708322521889 0.0
0.985043173993 0.0237124960335 0.0
1.32075233163 -0.010273033373 0.0
1.25725603378 0.0181277229776 0.0
1.26485545517 -0.0212734434431 0.0
1.29854721766 -0.00434081908086 0.0
1.26009335234 -0.00126430983502 0.0
1.28318249576 0.0128039735701 0.0
1.27660418179 -0.00490984775399 0.0
1.27256306121 0.00367862211248 0.0
1.28076481956 -0.00622040705771 0.0
1.26290617006 0.00919677652989 0.0
1.27627131865 0.00385645467899 0.0
1.27121439835 -0.00112229339458 0.0
1.26644920902 0.00406373782851 0.0
1.2776395192 0.00106333023583 0.0
1.29601767468 -0.0207524589519 0.0
1.25572087266 -0.00730702217753 0.0
1.283060066 0.000889258691982 0.0
1.28131510932 0.00623417143149 0.0
1.30442188115 -0.00277726698931 0.0
1.27326690936 0.0186268276392 0.0
1.30561355077 -0.0163757771125 0.0
1.25474128951 -0.0583426917198 0.0
1.29384833919 -0.00830993512348 0.0
1.27235305551 0.000532449910233 0.0
1.27695685466 -0.00428224483106 0.0
1.26827308159 0.00441497810717 0.0
1.27475400481 -0.00156863779577 0.0
1.20562982015 0.03977454917 0.0
1.30842106401 -0.000638184316298 0.0
1.2632512687 0.00785151298048 0.0
1.27754864105 -0.00509287185914 0.0
1.25990600294 -0.0202581363994 0.0
1.26067515221 -0.00254761573952 0.0
1.02180694727 -0.132379436831 0.0
1.28494864253 -0.0137299227057 0.0
1.29349971905 0.0208977345649 0.0
1.37035300582 -0.011948984487 0.0
1.36523723614 -0.00355321559669 0.0
1.27459539786 0.00252436873011 0.0
0.993677818683 0.0806753744517 0.0
0.773471664072 -0.00773759870452 0.0
1.07792657856 0.123342082008 0.0
1.03602058932 -0.09868157892 0.0
1.29247446809 -0.00729480028265 0.0
1.30032678599 -0.0157391826378 0.0
1.24631307138 0.0160186961962 0.0
1.35146476442 -0.0209413773935 0.0
1.34767933413 0.0321190447549 0.0
0.888835886633 0.0810899041525 0.0
0.774132585422 0.0278092360069 0.0
1.17834271539 -0.155487665003 0.0
0.856332903016 -0.0714172293112 0.0
1.34571282446 -0.0154440259674 0.0
1.360243106 0.0261447155503 0.0
0.671089649149 0.0250468962637 0.0
0.703255159237 0.0118454518092 0.0
0.679967210963 -0.0238665768529 0.0
1.3657106756 0.019290486638 0.0
1.34879596928 -0.0119003104375 0.0
1.32958968592 -0.00527994686231 0.0
1.31454111274 0.0131188896076 0.0
1.35856260952 0.0152354872976 0.0
1.34509383241 -0.00719185689921 0.0
1.35442002807 0.0113294754553 0.0
1.33493331684 0.00563045665816 0.0
0.707782722385 0.0111445951355 0.0
0.703710662253 -0.0110190930625 0.0
1.35138398496 0.00454626528164 0.0
0.710558425874 0.0113786458478 0.0
0.700372904241 -0.00906163314368 0.0
0.719658074191 0.0160843241944 0.0
0.692259203129 -0.0104566185477 0.0
0.837165598665 -0.0252004305544 0.0
0.733662809394 -0.0257594258898 0.0
0.771796153443 -0.00455036730577 0.0
0.745405124252 -0.00494922452152 0.0
0.785470420672 0.0371830530271 0.0
0.717231669575 -0.0248785149556 0.0
0.785155141406 7.36458632115e-05 0.0
0.747854628463 -0.00325606528008 0.0
0.640754258862 0.029949737965 0.0
1.23459263465 -0.0898440893463 0.0
0.80104744159 -0.00208750448362 0.0
0.693095440881 0.024942991343 0.0

SCALARS scalar1 double
LOOKUP_TABLE default
3.50199272816
6.40412538807
6.73953828651
6.66827955489
-6.20641291409
-2.39888453958
11.4300871269
10.1270566949
7.68379782354
6.83042952923
6.22125828862
6.30900964395
6.34469307843
6.05051520019
6.61907710799
6.3898701474
6.34054066908
6.48293681532
6.78628420306
6.61779770638
6.62663543859
6.93516201694
6.69343566773
6.65961790169
6.93036526858
6.65547065529
6.52920826238
6.98888196575
7.23589493289
7.12311521186
8.82054773548
5.29342873968
8.68839919837
6.97689963465
7.23504650033
7.15051130021
6.65915366103
6.73943492681
7.04730662408
6.75917175157
6.76728422371
7.02650642631
6.72843347725
6.6013268808
6.68703758974
6.97237697306
6.33487708469
6.62596385539
6.50416611057
6.10979741632
6.24451589067
6.18965309204
6.67679400074
6.45564786201
2.98164193314
0.672223247236
-0.630788662982
-2.84263629193
-6.71718690631
-6.77521017465
-6.36789942266
-5.9074963728
-6.01431430165
-5.82886863639
-6.40560461576
-5.95043405625
-5.76520352612
-6.13275228151
-5.86028818153
-5.68862192301
-6.09118545088
-5.85012304402
-5.67796743144
-6.12066850638
-5.98280854291
-5.69791619219
-6.177658127
-7.64767756634
-5.27446107884
-6.31181110036
-6.09836669221
-6.00658353274
-6.04335717151
-5.02284883869
-7.32354268602
-6.03571786157
-5.65691014224
-5.95189370314
-6.08546311331
-5.66982823369
-5.86227627597
-6.0828878353
-5.69068380389
-5.89571085224
-6.14113702274
-5.78327286303
-6.02014558473
-6.33544404281
-6.0216773782
-6.31784308662
-6.9831032945
-6.39942620939
-6.65379709166
-6.74863485059
-7.50815704959
-9.59688975563
-10.5792523759
2.53058694594
-0.0898087486232
-0.00557541036113
-3.45075577603
-0.193158702586
0.19062274603
0.224780318097
0.360826244944
0.185323688285
0.362400718427
0.467589085151
0.307777628277
0.415868997428
0.307595688675
0.370100392176
0.251670505826
0.31684248701
-0.00340179871297
-0.0610029855896
-0.120891383888
1.62586378263
-1.12881184755
-1.26509621306
-1.01568257458
-1.02178332261
-0.995144658389
-0.943227068244
-1.08141133276
-1.01078224952
-0.995447867683
-0.993796589029
1.17807315065
0.983818901106
-0.873515042865
-1.10496828657
1.15521285753
1.26100801769
-0.262816765831
-0.994147550807
1.19726081512
1.28331128569
0.857125901775
1.32602245763
1.20698158607
1.31888011507
1.2045998101
1.3855778059
1.25861384949
0.733480072272
-1.44370983729
-1.23659131854
-1.41074359975
0.907691453285
0.879132243689
1.19405218447
1.9873454886
1.97703053992
1.98864144731
-2.02044773661
-1.72793725439
-1.78617178877
-2.32761320746
1.92948643804
2.01596387781
-2.03195173773
-1.99114317672
-1.93299007764
-1.95936023113
-1.89813324893
-1.92574198621
-1.98528271293
-1.9272684842
2.93282495138
2.84688279004
2.90703249323
2.83347713219
2.88003009142
2.72621747959
2.80617228575
3.52036261651
3.44366881812
-2.98264198075
-2.07805981832
-2.43548646712
-2.1163827532
1.09896624496
-0.0956291355082
-0.0148955163524
-3.54943660033
-2.95968730872
0.033336703283
-0.201215418746
3.64149794641
3.07828539434
3.65832615386
-0.75241683432
-3.09051546732
-3.2066719654
-3.09770934303
-2.83752940771
-3.04101397408
-3.1344478805
-3.13196643198
-3.10995345377
-3.24489311782
-3.17422353341
-3.18376994289
3.36390104392
3.37851553259
3.3989369642
3.30113008863
3.26381990442
3.32079035919
3.42675341621
3.33911614702
-0.127587585915
-0.204236435272
3.42694122567
3.44678595821
0.047531744635
0.17845515209
3.49122256587
3.50346114794
3.47444507752
3.43775513424
3.426709311
3.49565797318
3.512718731
0.0737131237329
0.173873535028
0.0670494151071
0.120110970398
0.00554043491313
0.0888348612656
-0.0193150080438
0.0240564499733
0.246502965136
0.107482798265
-0.019223273913
0.0330252902564
0.0121975156138
0.0895501157526
0.175352194329
-0.0131115674985
0.197220100558
0.0239740941349
0.16253670994
0.0478813042355
0.192992189922
0.0986687039294
0.247024256218
0.0914399145273
3.43571657265
3.50185963479
3.33123243928
3.46515673255
3.35630534262
3.5315085506
3.41324249401
3.54503492667
3.4559754059
-3.08512550027
-2.81868395808
0.0145639091185
-3.7622789606
-3.12769183709
-2.92968910018
1.26858937916
-0.600121823421
-3.72736760471
-3.64427746894
-3.57987025556
-3.7195505095
-3.93478716799
-3.87994470079
-3.50111946089
-3.62301772886
-3.549499675
-3.57595110115
-0.843996645782
-0.269405538703
-3.6019354111
-0.889452792552
-0.646197875726
-3.14074716188
3.31036599714
-0.679650782245
-0.810444346719
3.56503070737
-3.02890623023
-0.677774866918
-0.755213164497
-0.721316433319
-0.688355331156
3.40524518529
-0.727658314398
-0.861657734506
-1.0483818594
1.03603548839
1.26863094482
1.0109655249
1.17811764272
0.868703216107
1.38576306773
1.32126545847
1.33813415725
1.2299703723
1.28898991167
1.40002622547
1.18639273783
0.996017931556
1.3749397207
1.27977954701
1.02403440348
1.11666317933
1.13274838026
0.732145561677
1.02565622235
1.4564976389
0.920513275421
1.49113232017
1.15845497805
0.239878152873
-0.888954746204
1.55173179833
1.20219438018
-0.734563286452
-0.902451130557
3.52644601971
0.84379566467
0.825026585211
0.0900950183261
0.121454924888
-1.33752567694
1.13303211321
-4.37364356261
-3.48056494515
-1.60636900418
1.45774709206
-0.840324816922
-0.0293625458352
-0.623486181289
-0.209589848004
-3.7794843963
4.34445305827
3.71169619344
-3.8981192054
-0.634148570302
-0.439843080385
-4.19882903591
-4.07470607632
-4.25714259123
-0.42945694578
-0.544682881807
-0.795727947529
-0.593690419139
-0.445535324626
-0.503687298555
-0.46234402234
-0.508465939985
-4.07905150774
-4.06486427765
-0.53367795089
-4.14778934129
-4.0622481635
-4.26600029617
-4.14859553358
4.39915812617
4.32402125012
4.37177168557
4.26958336886
-4.26382770475
-4.18770666362
4.4515359798
4.36107748719
4.99421891621
1.12640290494
-4.32594601554
-4.28875741026

SCALARS scalar2 double
LOOKUP_TABLE default
3.50199272816
6.40412538807
6.73953828651
6.66827955489
-6.20641291409
-2.39888453958
11.4300871269
10.1270566949
7.68379782354
6.83042952923
6.22125828862
6.30900964395
6.34469307843
6.05051520019
6.61907710799
6.3898701474
6.34054066908
6.48293681532
6.78628420306
6.61779770638
6.62663543859
6.93516201694
6.69343566773
6.65961790169
6.93036526858
6.65547065529
6.52920826238
6.98888196575
7.23589493289
7.12311521186
8.82054773548
5.29342873968
8.68839919837
6.97689963465
7.23504650033
7.15051130021
6.65915366103
6.73943492681
7.04730662408
6.75917175157
6.76728422371
7.02650642631
6.72843347725
6.6013268808
6.68703758974
6.97237697306
6.33487708469
6.62596385539
6.50416611057
6.10979741632
6.24451589067
6.18965309204
6.67679400074
6.45564786201
2.98164193314
0.672223247236
-0.630788662982
-2.84263629193
-6.71718690631
-6.77521017465
-6.36789942266
-5.9074963728
-6.01431430165
-5.82886863639
-6.40560461576
-5.95043405625
-5.76520352612
-6.13275228151
-5.86028818153
-5.68862192301
-6.09118545088
-5.85012304402
-5.67796743144
-6.12066850638
-5.98280854291
-5.69791619219
-6.177658127
-7.64767756634
-5.27446107884
-6.31181110036
-6.09836669221
-6.00658353274
-6.04335717151
-5.02284883869
-7.32354268602
-6.03571786157
-5.65691014224
-5.95189370314
-6.08546311331
-5.66982823369
-5.86227627597
-6.0828878353
-5.69068380389
-5.89571085224
-6.14113702274
-5.78327286303
-6.02014558473
-6.33544404281
-6.0216773782
-6.31784308662
-6.9831032945
-6.39942620939
-6.65379709166
-6.74863485059
-7.50815704959
-9.59688975563
-10.5792523759
2.53058694594
-0.0898087486232
-0.00557541036113
-3.45075577603
-0.193158702586
0.19062274603
0.224780318097
0.360826244944
0.185323688285
0.362400718427
0.467589085151
0.307777628277
0.415868997428
0.307595688675
0.370100392176
0.251670505826
0.31684248701
-0.00340179871297
-0.0610029855896
-0.120891383888
1.62586378263
-1.12881184755
-1.26509621306
-1.01568257458
-1.02178332261
-0.995144658389
-0.943227068244
-1.08141133276
-1.01078224952
-0.995447867683
-0.993796589029
1.17807315065
0.983818901106
-0.873515042865
-1.10496828657
1.15521285753
1.26100801769
-0.262816765831
-0.994147550807
1.19726081512
1.28331128569
0.857125901775
1.32602245763
1.20698158607
1.31888011507
1.2045998101
1.3855778059
1.25861384949
0.733480072272
-1.44370983729
-1.23659131854
-1.41074359975
0.907691453285
0.879132243689
1.19405218447
1.9873454886
1.97703053992
1.98864144731
-2.02044773661
-1.72793725439
-1.78617178877
-2.32761320746
1.92948643804
2.01596387781
-2.03195173773
-1.99114317672
-1.93299007764
-1.95936023113
-1.89813324893
-1.92574198621
-1.98528271293
-1.9272684842
2.93282495138
2.84688279004
2.90703249323
2.83347713219
2.88003009142
2.72621747959
2.80617228575
3.52036261651
3.44366881812
-2.98264198075
-2.07805981832
-2.43548646712
-2.1163827532
1.09896624496
-0.0956291355082
-0.0148955163524
-3.54943660033
-2.95968730872
0.033336703283
-0.201215418746
3.64149794641
3.07828539434
3.65832615386
-0.75241683432
-3.09051546732
-3.2066719654
-3.09770934303
-2.83752940771
-3.04101397408
-3.1344478805
-3.13196643198