# vtk DataFile Version 2.0
2D Simulation Python
ASCII
DATASET UNSTRUCTURED_GRID
FIELD FieldData 1
NODES 1 2 int
386 659

POINTS 386 double
0.0 1.0 0.0
1.725 1.0 0.0
8.275 1.0 0.0
10.0 1.0 0.0
10.0 0.0 0.0
0.0 0.0 0.0
0.1916666666663293 1.0 0.0
0.3833333333324708 1.0 0.0
0.574999999998553 1.0 0.0
0.7666666666645966 1.0 0.0
0.9583333333312576 1.0 0.0
1.149999999998384 1.0 0.0
1.341666666665662 1.0 0.0
1.533333333332819 1.0 0.0
1.92348484848444 1.0 0.0
2.121969696968978 1.0 0.0
2.320454545453434 1.0 0.0
2.518939393937826 1.0 0.0
2.717424242422235 1.0 0.0
2.915909090906411 1.0 0.0
3.1143939393908 1.0 0.0
3.312878787875129 1.0 0.0
3.511363636359531 1.0 0.0
3.709848484843827 1.0 0.0
3.90833333332816 1.0 0.0
4.106818181812215 1.0 0.0
4.305303030296804 1.0 0.0
4.503787878781365 1.0 0.0
4.702272727265711 1.0 0.0
4.900757575750005 1.0 0.0
5.099242424235156 1.0 0.0
5.297727272720327 1.0 0.0
5.496212121205663 1.0 0.0
5.694696969690998 1.0 0.0
5.89318181817668 1.0 0.0
6.09166666666213 1.0 0.0
6.290151515147423 1.0 0.0
6.488636363633031 1.0 0.0
6.687121212118713 1.0 0.0
6.885606060604342 1.0 0.0
7.084090909089381 1.0 0.0
7.282575757574369 1.0 0.0
7.481060606059355 1.0 0.0
7.679545454544343 1.0 0.0
7.878030303029329 1.0 0.0
8.076515151514705 1.0 0.0
8.46666666666447 1.0 0.0
8.658333333329285 1.0 0.0
8.84999999999549 1.0 0.0
9.041666666661694 1.0 0.0
9.233333333327899 1.0 0.0
9.42499999999549 1.0 0.0
9.616666666663775 1.0 0.0
9.808333333331985 1.0 0.0
10.0 0.7999999999999998 0.0
10.0 0.6000000000013869 0.0
10.0 0.4000000000016644 0.0
10.0 0.2000000000008322 0.0
9.799999999999999 0.0 0.0
9.6 0.0 0.0
9.399999999999999 0.0 0.0
9.2 0.0 0.0
8.999999999999998 0.0 0.0
8.799999999999997 0.0 0.0
8.599999999999998 0.0 0.0
8.399999999999997 0.0 0.0
8.199999999999998 0.0 0.0
7.999999999999997 0.0 0.0
7.799999999999997 0.0 0.0
7.599999999999998 0.0 0.0
7.399999999999997 0.0 0.0
7.199999999999998 0.0 0.0
6.999999999999997 0.0 0.0
6.799999999999997 0.0 0.0
6.599999999999998 0.0 0.0
6.399999999999997 0.0 0.0
6.199999999999998 0.0 0.0
5.999999999999997 0.0 0.0
5.799999999999998 0.0 0.0
5.599999999999998 0.0 0.0
5.399999999999999 0.0 0.0
5.199999999999998 0.0 0.0
4.999999999999999 0.0 0.0
4.799999999999999 0.0 0.0
4.599999999999999 0.0 0.0
4.399999999999999 0.0 0.0
4.199999999999999 0.0 0.0
3.999999999999999 0.0 0.0
3.799999999999999 0.0 0.0
3.599999999999999 0.0 0.0
3.399999999999998 0.0 0.0
3.199999999999998 0.0 0.0
2.999999999999999 0.0 0.0
2.799999999999998 0.0 0.0
2.599999999999998 0.0 0.0
2.399999999999999 0.0 0.0
2.199999999999999 0.0 0.0
1.999999999999998 0.0 0.0
1.799999999999999 0.0 0.0
1.6 0.0 0.0
1.4 0.0 0.0
1.199999999999999 0.0 0.0
0.9999999999999982 0.0 0.0
0.7999999999999989 0.0 0.0
0.6000000000000014 0.0 0.0
0.3999999999999986 0.0 0.0
0.1999999999999993 0.0 0.0
0.0 0.1999999999995579 0.0
0.0 0.3999999999989749 0.0
0.0 0.5999999999989468 0.0
0.0 0.7999999999994734 0.0
0.6587884836493152 0.5457548330322022 0.0
9.341211104408846 0.5457542925283146 0.0
8.741579618891745 0.5670139483164112 0.0
1.258417250254352 0.5670195975424888 0.0
8.163063291566349 0.5721972657563198 0.0
1.8369184881567375 0.5722420105827126 0.0
2.430189653876135 0.5973776342472847 0.0
7.569715352111446 0.5970769781870686 0.0
3.03021732020127 0.601623457932284 0.0
6.969259668841896 0.5997632499714461 0.0
3.6283918818855025 0.6004769272413966 0.0
6.368167239631964 0.5905575221761489 0.0
4.229179520846662 0.5906593498082578 0.0
5.7952344213032205 0.5277995738165965 0.0
4.802342219053447 0.5278097926500198 0.0
5.298803694827676 0.5198739641226201 0.0
9.677474810296664 0.700424848023391 0.0
0.3225251002965519 0.700424946653853 0.0
4.530365579465945 0.3379797818151557 0.0
3.9185901202536897 0.3718393089483095 0.0
6.068093154014708 0.3379457478908463 0.0
3.319157454132724 0.37610374627808046 0.0
6.679853310252232 0.3715486895554328 0.0
7.879193189302437 0.36685426561661605 0.0
2.120769103222354 0.3669635852800818 0.0
2.719868949035693 0.3750678789040347 0.0
7.279933124198028 0.37434456244806025 0.0
9.037359254300386 0.6722421720155537 0.0
0.9626397300267444 0.672243704839226 0.0
1.5319236066780157 0.3599045424119823 0.0
8.468069532433486 0.35988961251839413 0.0
8.458460213837464 0.6795290629660911 0.0
1.541533242906387 0.6795426866464201 0.0
0.9793097078422786 0.36502671517529983 0.0
9.020689112002731 0.36502483036864597 0.0
4.527041102091733 0.6902039476311393 0.0
3.921175826964963 0.701244185745305 0.0
6.069812739482382 0.6901767905704354 0.0
2.118162763139436 0.6914345603175365 0.0
7.881802993421945 0.6913398110434256 0.0
3.3231130238781996 0.7045112669818299 0.0
6.675749639430934 0.7010094741594687 0.0
2.72513539222119 0.7035682560809687 0.0
7.274676755846003 0.702943847992846 0.0
0.33281853213379037 0.3035485291327113 0.0
9.667181365576981 0.3035484110109078 0.0
5.581367796976352 0.3212627698864485 0.0
5.017148051547392 0.32126534159282605 0.0
5.509486844466761 0.6939420050987694 0.0
5.087335149067014 0.6939435316345738 0.0
0.6618552116639758 0.7353855473036329 0.0
9.338144487459555 0.7353851636183671 0.0
8.747737078102483 0.7397031037776142 0.0
1.2522606486032608 0.7397071107206954 0.0
8.670503728606034 0.27575486124424103 0.0
1.329493083287861 0.27576110857376496 0.0
0.6803598574851369 0.23677140925347506 0.0
9.319639829277165 0.23677098469379868 0.0
8.170079101854839 0.7444235405678918 0.0
1.829907767569213 0.7444549773687246 0.0
8.08240893527707 0.27767904484016737 0.0
1.917572758900688 0.2777275739578166 0.0
7.485367853735534 0.2849528432187401 0.0
2.5145352056050436 0.28528566313545417 0.0
6.8853415457908 0.2853770243848877 0.0
3.1141873904743127 0.28751634959217015 0.0
6.285071217262465 0.27069382127555636 0.0
3.7135781832860855 0.2858457592880457 0.0
2.422299587107473 0.8118013618322535 0.0
7.577645663487083 0.8116327037597026 0.0
3.0214419009300384 0.814570212463465 0.0
6.978245024594265 0.8135531408634439 0.0
3.61829792639509 0.813971823990409 0.0
6.379585060419836 0.8095537034265995 0.0
4.216752981648428 0.8096120056342422 0.0
5.793645675001408 0.843043384014268 0.0
4.8025105090685685 0.8430478285064044 0.0
5.299570681028987 0.18554861681894996 0.0
4.31371481137033 0.27076108754752265 0.0
4.743103152075353 0.23783767699484332 0.0
5.8558025171401935 0.23782621110777377 0.0
5.298359475582343 0.7169275784749934 0.0
0.19482313789442074 0.5020757184173374 0.0
9.805176802285366 0.5020756532766014 0.0
9.486984361586638 0.1622612413315243 0.0
0.5130155134414575 0.1622613973089532 0.0
9.568960055678035 0.5120747659270581 0.0
0.43103976274392725 0.5120749811172521 0.0
9.509159546097601 0.8362700874624548 0.0
0.4908403452345726 0.8362702146986372 0.0
9.823692000441724 0.8277090282516855 0.0
0.17630797273551108 0.8277090557384524 0.0
7.690803469574293 0.19233697525668614 0.0
2.3091571724105004 0.19246266013432384 0.0
8.876729947349617 0.19160258254324028 0.0
1.1232688245966185 0.19160475773566527 0.0
7.091010511356364 0.1944828956982309 0.0
2.9087940502140395 0.19530428170213474 0.0
6.4911852116741 0.18952039631941953 0.0
3.5083809603242933 0.19511485628989592 0.0
1.7132142927726022 0.1878607498506312 0.0
8.286778401970011 0.18784304450569445 0.0
4.107993389887646 0.18962168916387365 0.0
8.577652303167703 0.8283150938529968 0.0
1.4223449022034547 0.8283205701870774 0.0
8.923397325357412 0.8260929743948867 0.0
1.076601745633126 0.8260944704748651 0.0
0.8418235479392665 0.8247546071748171 0.0
9.158176038932936 0.8247540200418626 0.0
8.345959827871509 0.8294116655422406 0.0
1.6540344812656844 0.8294242207419854 0.0
5.592502664731945 0.504257553351417 0.0
5.005177656751338 0.5042609640591176 0.0
7.789529319851632 0.8390486354667683 0.0
2.2104443187123977 0.8391240349948614 0.0
7.777106384426875 0.5512995282801338 0.0
2.222838516312912 0.5514620789019882 0.0
2.815135507372651 0.8444583601940282 0.0
7.184716462782846 0.8439753394165894 0.0
3.411909141095945 0.8446785927476459 0.0
6.587144481447972 0.8422316100586291 0.0
4.009072909259221 0.8423335945631737 0.0
5.984897520929505 0.8432043717658282 0.0
4.611261587624606 0.8432149532308518 0.0
7.17541335622055 0.558999058102011 0.0
2.8242893018154818 0.5600483604888614 0.0
6.575418792712846 0.5543325775891033 0.0
3.4228018112243066 0.5603984293864263 0.0
5.978165487081609 0.5311990601703369 0.0
4.022154372772047 0.5545464002487935 0.0
4.619404137422193 0.5312227002325254 0.0
8.54917421347873 0.540089071262912 0.0
1.4508199690533357 0.5401007936161628 0.0
1.0632014068326705 0.5313500267462405 0.0
0.8721797556749589 0.5237808043849569 0.0
8.93679690206378 0.5313472760734033 0.0
9.12781936281979 0.5237795112131337 0.0
4.433966151994717 0.5456948887451029 0.0
1.6371252441017505 0.5363643810888726 0.0
8.36286438306305 0.5363412054464627 0.0
2.0326341726252926 0.5486201982956171 0.0
7.967333683079856 0.5485332366635174 0.0
3.8305117533010575 0.5630991173961979 0.0
6.163553966021881 0.5456444713315275 0.0
3.231904836994985 0.5661882241691675 0.0
6.767124575912594 0.5627041579804462 0.0
2.6328973410192233 0.5642550391273696 0.0
7.36693029774946 0.5636740635892757 0.0
4.421631714022364 0.8396756927503491 0.0
3.8217776803328 0.8436412164725888 0.0
6.174550983910255 0.8396521857940089 0.0
1.9990733867538653 0.8334690052068827 0.0
8.000911843298539 0.8334305002823725 0.0
3.2249958108028296 0.8449874629065728 0.0
6.774486654819186 0.8434527404737259 0.0
2.627750094661196 0.8439690566027966 0.0
7.372164181208345 0.8436945031314462 0.0
4.921926332660367 0.1832287342050671 0.0
5.677226636752271 0.1832254944345442 0.0
0.165626823112795 0.15675282456184417 0.0
9.834373147443007 0.15675279272442555 0.0
9.136571062307786 0.18252965041076485 0.0
0.8634284552419514 0.18253039290090076 0.0
9.486992341699766 0.6659703315116446 0.0
0.5130074502732016 0.6659705798103376 0.0
1.4801970202036843 0.15808272040633517 0.0
8.519799856760672 0.15807600512116848 0.0
7.925224524792971 0.16031525621075926 0.0
2.074758050359514 0.16036541543130634 0.0
6.1380796916107805 0.14566324140580786 0.0
4.461259561977539 0.1456878113300018 0.0
[...]
POINT_DATA 386
VECTORS vector double
1.0 0.0 0.0
0.0 0.0 0.0
0.0 0.0 0.0
0.0 0.0 0.0
0.0 0.0 0.0
1.0 0.0 0.0
0.0 0.0 0.0
0.0 0.0 0.0
0.0 0.0 0.0
0.0 0.0 0.0
0.0 0.0 0.0
0.0 0.0 0.0
0.0 0.0 0.0
0.0 0.0 0.0
0.0 0.0 0.0
0.0 0.0 0.0
0.0 0.0 0.0
0.0 0.0 0.0
0.0 0.0 0.0
0.0 0.0 0.0
0.0 0.0 0.0
0.0 0.0 0.0
0.0 0.0 0.0
0.0 0.0 0.0
0.0 0.0 0.0
0.0 0.0 0.0
0.0 0.0 0.0
0.0 0.0 0.0
0.0 0.0 0.0
0.0 0.0 0.0
0.0 0.0 0.0
0.0 0.0 0.0
0.0 0.0 0.0
0.0 0.0 0.0
0.0 0.0 0.0
0.0 0.0 0.0
0.0 0.0 0.0
0.0 0.0 0.0
0.0 0.0 0.0
0.0 0.0 0.0
0.0 0.0 0.0
0.0 0.0 0.0
0.0 0.0 0.0
0.0 0.0 0.0
0.0 0.0 0.0
0.0 0.0 0.0
0.0 0.0 0.0
0.0 0.0 0.0
0.0 0.0 0.0
0.0 0.0 0.0
0.0 0.0 0.0
0.0 0.0 0.0
0.0 0.0 0.0
0.0 0.0 0.0
0.967478223198 0.0911026016396 0.0
1.39232063445 -0.00171368736706 0.0
1.38330619353 -0.00867341953933 0.0
0.962395848326 -0.0887331596952 0.0
0.0 0.0 0.0
0.0 0.0 0.0
0.0 0.0 0.0
0.0 0.0 0.0
0.0 0.0 0.0
0.0 0.0 0.0
0.0 0.0 0.0
0.0 0.0 0.0
0.0 0.0 0.0
0.0 0.0 0.0
0.0 0.0 0.0
0.0 0.0 0.0
0.0 0.0 0.0
0.0 0.0 0.0
0.0 0.0 0.0
0.0 0.0 0.0
0.0 0.0 0.0
0.0 0.0 0.0
0.0 0.0 0.0
0.0 0.0 0.0
0.0 0.0 0.0
0.0 0.0 0.0
0.0 0.0 0.0
0.0 0.0 0.0
0.0 0.0 0.0
0.0 0.0 0.0
0.0 0.0 0.0
0.0 0.0 0.0
0.0 0.0 0.0
0.0 0.0 0.0
0.0 0.0 0.0
0.0 0.0 0.0
0.0 0.0 0.0
0.0 0.0 0.0
0.0 0.0 0.0
0.0 0.0 0.0
0.0 0.0 0.0
0.0 0.0 0.0
0.0 0.0 0.0
0.0 0.0 0.0
0.0 0.0 0.0
0.0 0.0 0.0
0.0 0.0 0.0
0.0 0.0 0.0
0.0 0.0 0.0
0.0 0.0 0.0
0.0 0.0 0.0
0.0 0.0 0.0
0.0 0.0 0.0
1.0 0.0 0.0
1.0 0.0 0.0
1.0 0.0 0.0
1.0 0.0 0.0
1.23792247319 -0.0451758392682 0.0
1.42941155453 -0.0126315743324 0.0
1.42491562298 -0.0069239169698 0.0
1.35184276627 -0.0081981509579 0.0
1.42397928562 -0.0031406322162 0.0
1.39861323128 0.00758680313379 0.0
1.39223462021 0.00494716399581 0.0
1.40197433424 -0.000563310788879 0.0
1.39554985231 0.000656017542498 0.0
1.39739980874 -0.000516506292752 0.0
1.39760157014 -0.000849494488786 0.0
1.39381971327 -0.00712552438625 0.0
1.40310432708 -0.00238520274314 0.0
1.40532871324 0.00193027033542 0.0
1.42572308071 0.00481757138704 0.0
1.44902700519 0.00344315545917 0.0
1.27103132082 0.00140025596433 0.0
1.14253729862 -0.121821347889 0.0
1.27061567006 0.00924406506744 0.0
1.32652750061 0.000638674185028 0.0
1.2530904201 -0.00692438563694 0.0
1.33500820137 0.00285143435043 0.0
1.31670184394 -0.000163314250346 0.0
1.31710474562 -0.00165909184049 0.0
1.33916636609 0.0133551755399 0.0
1.339824625 0.00576798362217 0.0
1.32443205496 0.000526258237486 0.0
1.3279067347 -0.00752186116842 0.0
1.27010616874 -0.0296563792853 0.0
1.33298475313 0.0251528038758 0.0
1.31307863967 -0.00589425639819 0.0
1.32772974752 -0.00503730313963 0.0
1.27989072102 0.00290275219956 0.0
1.30357739421 0.0175228613723 0.0
1.33598987138 -0.0129764255496 0.0
1.28807817979 -0.00140315779272 0.0
1.26144237517 0.00314437830011 0.0
1.2898280085 0.00183728323646 0.0
1.26782819204 0.0136784500893 0.0
1.2974594933 -0.00814180227948 0.0
1.25324644257 0.00474653772551 0.0
1.2663061727 -0.00389931467961 0.0
1.2482168141 0.00593878931345 0.0
1.26375821945 0.000445922404683 0.0
1.11172689605 0.0869725291419 0.0
1.26529035185 -0.0116816414193 0.0
1.22247217265 0.00292241006213 0.0
1.22967668566 -0.00201253815381 0.0
1.25033870476 0.0308240481195 0.0
1.25467094282 -0.0173264860831 0.0
1.19804220597 -0.0731294061114 0.0
1.20349333613 -0.00770708967567 0.0
1.20130590262 -0.00666887151517 0.0
1.16089743084 -0.0127936013589 0.0
1.15266701087 0.00210858853689 0.0
1.19901881628 0.01576278233 0.0
1.15667467209 0.0301186581074 0.0
1.10701461903 -0.00895487940596 0.0
1.20274626241 -0.00384628846339 0.0
1.16495742468 0.00196182483955 0.0
1.15185749904 0.00737855845979 0.0
1.18854023618 0.00271040166509 0.0
1.16537626869 0.00840787754651 0.0
1.18666862856 -0.0035562614961 0.0
1.16698499702 0.00847901727741 0.0
1.18175673435 -0.00706991678847 0.0
1.13729202813 0.00377690180364 0.0
1.17371361946 -0.00738077964016 0.0
0.97199887013 -0.0011176706665 0.0
0.997846217916 0.000719476813715 0.0
0.972736557465 0.000649082068893 0.0
0.993269474224 -0.00287142653163 0.0
0.980677156705 0.000545065001347 0.0
1.01899777313 -0.00651187707843 0.0
0.996666487335 -0.00197129863382 0.0
0.922454169716 0.00122481654311 0.0
0.891497139718 0.00201241596466 0.0
0.919117419362 -0.000274701839449 0.0
1.14527745413 -0.0031076306528 0.0
0.974398774934 -0.0225640450635 0.0
0.970824291665 0.0207846214662 0.0
1.16347131702 0.00969499944459 0.0
0.992057089098 -0.0107224633757 0.0
1.44013430174 -0.00828974653001 0.0
0.853398659065 -0.000291688331313 0.0
1.04999648147 0.057098982006 0.0
1.44718370543 -0.00781550285 0.0
1.11956355257 -0.0251377794034 0.0
0.851839047314 -0.00602445617121 0.0
1.08413436402 -0.0811207273379 0.0
0.830109505524 -0.0542449055232 0.0
1.19095342119 -0.176825697512 0.0
0.9205900767 -0.00737704718842 0.0
0.946596153193 0.0119193267071 0.0
0.925694523965 -0.0131694227928 0.0
1.02508497136 0.0283073439311 0.0
0.929718063167 -0.0078176818016 0.0
0.94258550038 0.00940219061013 0.0
0.918108471261 -0.0091771161551 0.0
0.937362874072 0.00911499103153 0.0
0.964399805033 0.020102545072 0.0
0.909074821429 -0.010083652408 0.0
0.920569825139 0.00972230457457 0.0
0.90869884652 -0.0108597510698 0.0
0.886546413728 0.0034247115944 0.0
0.907299835937 0.00674467609051 0.0
0.919645346912 -0.0269793978539 0.0
0.965701405954 -0.0245257832788 0.0
0.904639661222 -0.0148060291314 0.0
0.909806202678 0.0093900128667 0.0
0.881281416443 -0.0114151787433 0.0
1.40863323415 -0.0109027117879 0.0
1.42315234152 0.0178863756746 0.0
0.881291281985 -0.00867269328877 0.0
0.855036668588 0.00890970409888 0.0
1.45319712366 0.000383137149622 0.0
1.44523099225 0.00646578149789 0.0
0.85484144881 0.000143085945109 0.0
0.874885530504 0.000276122596813 0.0
0.860796472624 0.0010733849947 0.0
0.889456401934 -0.00589169813999 0.0
0.87240055432 0.00170543176904 0.0
0.923749848307 0.00419565003826 0.0
0.88767862558 -0.0033013257545 0.0
1.44732023592 0.00570707035655 0.0
1.44841665946 -0.00125621222374 0.0
1.44070776866 0.00213020535405 0.0
1.4486858336 -0.00342041331666 0.0
1.4202467465 -0.00098652748509 0.0
1.44958208734 -0.00703889575338 0.0
1.44537274464 0.00436938581929 0.0
1.4470409927 -0.00682052372114 0.0
1.40172558045 0.00961484797919 0.0
1.34741425321 -0.0116473608471 0.0
1.31090486468 -0.0236487081474 0.0
1.45494017038 -0.0093276229066 0.0
1.44931692705 -0.0176160915257 0.0
1.4376209042 -5.8894974482e-05 0.0
1.42745642261 0.0112548346995 0.0
1.46151094644 -0.00692080696276 0.0
1.43357706024 0.016306374207 0.0
1.44387531647 -0.00562814691674 0.0
1.43361158154 0.009653198237 0.0
1.41379589671 -0.00218429414406 0.0
1.43321060905 0.0120749881895 0.0
1.42597254787 -0.0102461246392 0.0
1.43232287124 0.0154517209261 0.0
1.43099765125 -0.00716975687328 0.0
0.877867224948 -0.00665498729328 0.0
0.866496443766 0.00300066459775 0.0
0.91390111636 0.00376675404543 0.0
0.879746274263 0.0197993454823 0.0
0.909773076894 -0.0197587578135 0.0
0.856375311071 0.002634700203 0.0
0.882276025886 -0.0035637274099 0.0
0.852307068424 0.00129469039176 0.0
0.876235215408 0.00108640076244 0.0
0.896521468086 0.0488021619449 0.0
0.898127845326 -0.0510055700971 0.0
1.10819225991 0.143925990079 0.0
0.84289800229 -0.0179625024425 0.0
0.906860658641 0.00484539302447 0.0
1.02595695308 0.00585846991542 0.0
1.32383165764 -0.0209243334356 0.0
1.23076455024 -0.110785892175 0.0
0.887912645347 0.00684205321755 0.0
0.815434963251 0.0065325795438 0.0
0.81775938842 0.00921419038324 0.0
0.850337787414 -0.00320824944323 0.0
0.781912956757 0.0213586472185 0.0
0.78001750811 -0.0195409186981 0.0
0.83104023577 0.00953470028534 0.0
0.845243768952 -0.00670308006306 0.0
0.830393752413 0.00816170890795 0.0
0.841763416516 -0.00723639071834 0.0
1.36035173734 -0.00672624681493 0.0
1.33496242691 0.0151530761355 0.0
0.832601509706 -0.00578287180426 0.0
1.35950559436 0.00169585885247 0.0
1.37442897767 0.0136168542339 0.0
0.882553141034 -0.00334991479412 0.0
0.93989095292 0.134810667123 0.0
1.38917427627 0.00303963633521 0.0
1.37283202296 0.00632787326358 0.0
0.924089632728 -0.0185653873013 0.0
0.883111652527 0.00197723244247 0.0
1.38719602174 -0.00333434930384 0.0
1.37342738654 0.0076372838032 0.0
1.35509143073 0.00636153148917 0.0
1.38223979657 -0.00547359780872 0.0
0.900301781966 0.0238384777328 0.0
1.37120859866 -0.00862032207058 0.0
1.29454711134 0.0225262669596 0.0
1.30939004694 -0.0217376254702 0.0
1.3154057301 0.00226773171721 0.0
1.26427322525 -0.0140193810404 0.0
1.29694960628 0.0057780695773 0.0
1.2855381596 0.00171162084573 0.0
1.2959236939 0.000463007929877 0.0
1.28900984505 -0.00736108978268 0.0
1.26416273766 0.0112531465712 0.0
1.28951546979 -0.00756766073447 0.0
1.27406188292 0.00472574686623 0.0
1.26844332695 0.00620281409675 0.0
1.28226493705 -0.00331780672863 0.0
1.31526171549 -0.0161918055081 0.0
1.26064910981 -0.016724363398 0.0
1.29596035019 -0.00355413164706 0.0
1.28236457853 0.000561889213242 0.0
1.31636518146 0.0027130546878 0.0
1.27710789331 0.0106311694442 0.0
1.31860339344 -0.011508186254 0.0
1.25740502004 -0.0624598178197 0.0
1.32130960804 -0.00159902774147 0.0
1.2770943896 -0.00327195908104 0.0
1.29899119146 -0.00643087084544 0.0
1.26984300945 -0.00210959959763 0.0
1.282556265 0.000315614397173 0.0
1.20678214601 0.0413511223411 0.0
1.33517440429 -0.00302287814622 0.0
1.26423154118 3.31112705409e-05 0.0
1.28336059624 0.00270724356887 0.0
1.30134195744 -0.00832342656817 0.0
1.30497968451 0.0108142990066 0.0
0.951009230848 -0.123612249053 0.0
1.30866983889 -0.0113696548548 0.0
1.31342734069 0.0207686269836 0.0
1.44557752322 0.00125414133177 0.0
1.43899063384 0.0103390313436 0.0
1.28622733504 0.000356047923414 0.0
0.994816466198 0.080505510232 0.0
0.724089502021 -0.0100232572168 0.0
1.07930415761 0.123579188635 0.0
1.03490945813 -0.0989853875212 0.0
1.31085170868 -0.00668476188842 0.0
1.33406383001 -0.00983603075483 0.0
1.24912416381 0.0187192435 0.0
1.40668729422 -0.0168167145723 0.0
1.37546412706 0.0311860221301 0.0
0.832888031849 0.0692077847004 0.0
0.741242663084 0.0292438866687 0.0
1.17642176975 -0.155804827114 0.0
0.828561809128 -0.0670138506109 0.0
1.40531509983 -0.0133944632298 0.0
1.41114740153 0.0265434680746 0.0
0.645258805343 0.0217193165026 0.0
0.67997388519 0.00964692387148 0.0
0.646839640909 -0.0223413922697 0.0
1.42648453673 0.0196720291605 0.0
1.41573752495 -0.0114657296293 0.0
1.38685265601 -0.00664973238319 0.0
1.36407664506 0.00791027322904 0.0
1.42509997859 0.0149174324115 0.0
1.41255775693 -0.0114842226636 0.0
1.42126878636 0.0130803725141 0.0
1.39279231415 -0.00523005729196 0.0
0.685582795625 0.00878000283485 0.0
0.676723330362 -0.00910520934879 0.0
1.41501931243 0.00428922754954 0.0
0.68803308869 0.00947421080949 0.0
0.673258239145 -0.00747267679917 0.0
0.699467033868 0.0150606193136 0.0
0.661415924528 -0.00800511268838 0.0
0.831828530473 -0.0269627113934 0.0
0.691582678658 -0.0213993212603 0.0
0.716201560371 -0.000933730428221 0.0
0.717598523712 -0.0102652963152 0.0
0.771714946133 0.0383098834421 0.0
0.676360493162 -0.020943285915 0.0
0.714583517564 0.00423960060362 0.0
0.690501936127 -0.00549045762308 0.0
0.60288926417 0.0284357921453 0.0
1.23263246034 -0.0899020900509 0.0
0.799811728761 -0.000497543535581 0.0
0.63637143191 0.0234621455669 0.0

SCALARS scalar1 double
LOOKUP_TABLE default
3.48280045615
5.8804410615
6.09238790366
6.27916108845
-5.75254318347
-2.40396460801
11.4125092799
10.1198969781
7.64888366328
6.7800918104
6.11853516996
6.08586936875
6.034301545
5.69008620274
6.05639619451
5.81256335093
5.82793611979
5.93380463429
6.02898523824
6.00083370117
5.9907260505
6.09958494158
6.04600933222
6.0273807171
6.11655940535
6.04202610832
5.9252922528
6.21944901379
6.43724580553
6.24867019802
7.86024975922
4.77236927285
8.04214171821
6.5351275115
6.76630495083
6.58000740814
6.16983810819
6.19726336401
6.26151867425
6.1236613962
6.12892346207
6.20415661895
6.11144503513
6.01530706581
6.0199816152
6.27961186166
5.84351116934
6.07251904956
5.99548847327
5.71153500294
5.81434694679
5.73767227383
6.30925433425
6.01089162015
3.2545606335
0.986354143049
-0.959329517281
-3.14274566217
-6.10138778823
-6.2179792267
-5.73236533128
-5.39067500394
-5.59493472023
-5.43187785394
-5.9412103413
-5.61400793607
-5.43449135692
-5.75570782402
-5.57891013833
-5.39456104922
-5.74742184597
-5.587241938
-5.39971802866
-5.77699711324
-5.68995709727
-5.40513419927
-5.74125022766
-7.00538609742
-4.77105385472
-5.7650855833
-5.64976759663
-5.6411545652
-5.73659347047
-4.73661472068
-6.93069123533
-5.6998796308
-5.39096598361
-5.68767614777
-5.77705937831
-5.42082154196
-5.62313252
-5.78749055677
-5.44307988799
-5.65686585476
-5.84079866808
-5.53527405157
-5.79091483365
-6.05371833393
-5.79988002274
-6.13249348489
-6.77171160069
-6.25554407672
-6.57417162844
-6.70318009172
-7.48749158753
-9.59739645123
-10.5895153405
2.530652799
-0.0908038636785
-0.00526748453821
-3.44692234629
-0.202381142113
0.331787537291
0.453867240244
0.44707340493
0.455840314718
0.637836308926
0.838400771982
0.685484152918
0.829594926434
0.711573571744
0.77922603183
0.545106947403
0.668891464123
0.00133186932434
0.033994426136
-0.0516825306357
2.07476798293
-1.12245011486
-1.74312686017
-1.42197595969
-1.59660776223
-1.37951260216
-1.36184443165
-1.48931139901
-1.34721233846
-1.368783459
-1.3931883826
1.66008963063
1.06083154869
-1.09985511075
-1.543796339
1.68991992023
1.64710115308
-0.320277092141
-1.44762207948
1.79611905595
1.91516282546
1.43630016191
1.86077455405
1.79092007151
1.97367571745
1.83395387392
1.98687618874
1.89874281368
0.742760236419
-1.97506221347
-1.81516142898
-1.85988247791
1.50043659324
1.67009807229
1.21832988597
2.45931600494
2.47432883138
2.22294333292
-2.43756892766
-1.92430912224
-1.79054821194
-2.77422602525
2.49625404663
2.47957562092
-2.4262913341
-2.31380820766
-2.33482057075
-2.32610848118
-2.29524006879
-2.30533622276
-2.37401399507
-2.31330527474
3.34629844694
3.35502068122
3.40816602829
3.37228967027
3.39828781248
3.22146117394
3.32987853283
3.71411160142
3.85992973246
-3.27580489412
-2.47031587577
-2.76580658577
-2.62183254487
1.83566930517
-0.0878454018097
-0.0190087437104
-3.70305055165
-2.95511463755
0.0465552043116
-0.197329999514
3.79133356799
3.095596449
3.79325905486
-0.748898487646
-3.32425721433
-3.41902255772
-3.35538270596
-2.94763466845
-3.2868038426
-3.35433371633
-3.3016561337
-3.32860078671
-3.43306392888
-3.39127695315
-3.38770010859
3.68013714204
3.52178774647
3.64028560747
3.41315260217
3.31441546641
3.61544592738
3.69820646076
3.56102761322
-0.178885123682
-0.206999265799
3.77017487446
3.70185129044
0.241953076702
0.406527687904
3.82860852769
3.8451119458
3.84510319131
3.78006304591
3.80688447166
3.74781142242
3.87069993673
0.316577699454
0.420871797585
0.242880946543
0.381622335108
0.0158370336548
0.304560760926
0.0845914784732
0.164287078258
0.34067487025
0.104498319391
-0.0385476020023
0.127735334418
0.0790487205681
0.239803149055
0.308832969802
0.12011235187
0.407726101898
0.210037480231
0.399033164754
0.130503724244
0.458552556202
0.338842071974
0.485921131285
0.354722909582
3.77799664041
3.83221402623
3.67388567958
3.65500230935
3.74256104423
3.85135035841
3.80971745838
3.81632167269
3.83526246538
-3.28000893126
-3.20411186115
0.0165563830672
-3.86352214223
-3.43213255589
-2.9521797792
1.67850311018
-0.599015306091
-3.80876768922
-3.77940185034
-3.72472361915
-3.81657283892
-3.88358625599
-3.88726198483
-3.67283539316
-3.7248362013
-3.68074707369
-3.67954154781
-1.206367516
-0.36690616543
-3.69268110666
-1.2309148789
-0.883916610465
-3.3584722701
3.77175130858
-0.980599981734
-1.11625012563
3.70551833705
-3.36631519161
-1.0038406119
-1.05061476289
-1.08371617159
-1.02823728962
3.87817410461
-1.11517495354
-1.42402707145
-1.47316589743
1.57362572988
1.53264156647
1.69291914712
1.85986662394
1.40281376451
1.90317974331
1.90629190393
1.84703240753
1.93387465332
1.9631508454
1.96087278454
1.61514495747
1.13961985503
1.89685120814
1.74460952153
1.61346589971
1.58532331342
1.62225467912
0.755712839479
1.51820284984
2.00762322548
1.53136601335
2.05178882738
1.85284669189
0.248601078243
-1.45133439376
2.04526914627
1.87230298135
-1.25715188156
-1.31768410036
3.6254970221
1.38242971423
1.57626304354
0.34425900297
0.328351332482
-1.8599697179
1.13680523429
-4.33300768432
-3.48069188253
-1.60011937446
1.92287573687
-1.36069313562
-0.0357093756801
-0.884689783603
-0.298811892944
-3.78343457586
4.34085142581
3.71743717894
-3.92194628203
-0.86749575718
-0.610097986134
-4.15597505549
-4.07244138141
-4.1416635618
-0.633386164466
-0.732061916657
-1.14395024135
-1.08217350931
-0.658928894947
-0.692452893461
-0.698221916977
-0.821371968025
-4.08564204767
-4.08473118967
-0.84847492068
-4.15075081027
-4.08739858202
-4.27222870338
-4.1434667068
4.40955950027
4.33421435029
4.4020407746
4.26084747953
-4.27105523989
-4.18115950465
4.48903359813
4.3245786673
4.82220370226
1.11672839337
-4.30846645841
-4.22601403127

SCALARS scalar2 double
LOOKUP_TABLE default
3.48280045615
5.8804410615
6.09238790366
6.27916108845
-5.75254318347
-2.40396460801
11.4125092799
10.1198969781
7.64888366328
6.7800918104
6.11853516996
6.08586936875
6.034301545
5.69008620274
6.05639619451
5.81256335093
5.82793611979
5.93380463429
6.02898523824
6.00083370117
5.9907260505
6.09958494158
6.04600933222
6.0273807171
6.11655940535
6.04202610832
5.9252922528
6.21944901379
6.43724580553
6.24867019802
7.86024975922
4.77236927285
8.04214171821
6.5351275115
6.76630495083
6.58000740814
6.16983810819
6.19726336401
6.26151867425
6.1236613962
6.12892346207
6.20415661895
6.11144503513
6.01530706581
6.0199816152
6.27961186166
5.84351116934
6.07251904956
5.99548847327
5.71153500294
5.81434694679
5.73767227383
6.30925433425
6.01089162015
3.2545606335
0.986354143049
-0.959329517281
-3.14274566217
-6.10138778823
-6.2179792267
-5.73236533128
-5.39067500394
-5.59493472023
-5.43187785394
-5.9412103413
-5.61400793607
-5.43449135692
-5.75570782402
-5.57891013833
-5.39456104922
-5.74742184597
-5.587241938
-5.39971802866
-5.77699711324
-5.68995709727
-5.40513419927
-5.74125022766
-7.00538609742
-4.77105385472
-5.7650855833
-5.64976759663
-5.6411545652
-5.73659347047
-4.73661472068
-6.93069123533
-5.6998796308
-5.39096598361
-5.68767614777
-5.77705937831
-5.42082154196
-5.62313252
-5.78749055677
-5.44307988799
-5.65686585476
-5.84079866808
-5.53527405157
-5.79091483365
-6.05371833393
-5.79988002274
-6.13249348489
-6.77171160069
-6.25554407672
-6.57417162844
-6.70318009172
-7.48749158753
-9.59739645123
-10.5895153405
2.530652799
-0.0908038636785
-0.00526748453821
-3.44692234629
-0.202381142113
0.331787537291
0.453867240244
0.44707340493
0.455840314718
0.637836308926
0.838400771982
0.685484152918
0.829594926434
0.711573571744
0.77922603183
0.545106947403
0.668891464123
0.00133186932434
0.033994426136
-0.0516825306357
2.07476798293
-1.12245011486
-1.74312686017
-1.42197595969
-1.59660776223
-1.37951260216
-1.36184443165
-1.48931139901
-1.34721233846
-1.368783459
-1.3931883826
1.66008963063
1.06083154869
-1.09985511075
-1.543796339
1.68991992023
1.64710115308
-0.320277092141
-1.44762207948
1.79611905595
1.91516282546
1.43630016191
1.86077455405
1.79092007151
1.97367571745
1.83395387392
1.98687618874
1.89874281368
0.742760236419
-1.97506221347
-1.81516142898
-1.85988247791
1.50043659324
1.67009807229
1.21832988597
2.45931600494
2.47432883138
2.22294333292
-2.43756892766
-1.92430912224
-1.79054821194
-2.77422602525
2.49625404663
2.47957562092
-2.4262913341
-2.31380820766
-2.33482057075
-2.32610848118
-2.29524006879
-2.30533622276
-2.37401399507
-2.31330527474
3.34629844694
3.35502068122
3.40816602829
3.37228967027
3.39828781248
3.22146117394
3.32987853283
3.71411160142
3.85992973246
-3.27580489412
-2.47031587577
-2.76580658577
-2.62183254487
1.83566930517
-0.0878454018097
-0.0190087437104
-3.70305055165
-2.95511463755
0.0465552043116
-0.197329999514
3.79133356799
3.095596449
3.79325905486
-0.748898487646
-3.32425721433
-3.41902255772
-3.35538270596
-2.94763466845
-3.2868038426
-3.35433371633
-3.3016561337
-3.32860078671
-3.43306392888
-3.39127695315
-3.38770010859
3.68013714204