# vtk DataFile Version 2.0
2D Simulation Python
ASCII
DATASET UNSTRUCTURED_GRID
FIELD FieldData 1
NODES 1 2 int
386 659

POINTS 386 double
0.0 1.0 0.0
1.725 1.0 0.0
8.275 1.0 0.0
10.0 1.0 0.0
10.0 0.0 0.0
0.0 0.0 0.0
0.1916666666663293 1.0 0.0
0.3833333333324708 1.0 0.0
0.574999999998553 1.0 0.0
0.7666666666645966 1.0 0.0
0.9583333333312576 1.0 0.0
1.149999999998384 1.0 0.0
1.341666666665662 1.0 0.0
1.533333333332819 1.0 0.0
1.92348484848444 1.0 0.0
2.121969696968978 1.0 0.0
2.320454545453434 1.0 0.0
2.518939393937826 1.0 0.0
2.717424242422235 1.0 0.0
2.915909090906411 1.0 0.0
3.1143939393908 1.0 0.0
3.312878787875129 1.0 0.0
3.511363636359531 1.0 0.0
3.709848484843827 1.0 0.0
3.90833333332816 1.0 0.0
4.106818181812215 1.0 0.0
4.305303030296804 1.0 0.0
4.503787878781365 1.0 0.0
4.702272727265711 1.0 0.0
4.900757575750005 1.0 0.0
5.099242424235156 1.0 0.0
5.297727272720327 1.0 0.0
5.496212121205663 1.0 0.0
5.694696969690998 1.0 0.0
5.89318181817668 1.0 0.0
6.09166666666213 1.0 0.0
6.290151515147423 1.0 0.0
6.488636363633031 1.0 0.0
6.687121212118713 1.0 0.0
6.885606060604342 1.0 0.0
7.084090909089381 1.0 0.0
7.282575757574369 1.0 0.0
7.481060606059355 1.0 0.0
7.679545454544343 1.0 0.0
7.878030303029329 1.0 0.0
8.076515151514705 1.0 0.0
8.46666666666447 1.0 0.0
8.658333333329285 1.0 0.0
8.84999999999549 1.0 0.0
9.041666666661694 1.0 0.0
9.233333333327899 1.0 0.0
9.42499999999549 1.0 0.0
9.616666666663775 1.0 0.0
9.808333333331985 1.0 0.0
10.0 0.7999999999999998 0.0
10.0 0.6000000000013869 0.0
10.0 0.4000000000016644 0.0
10.0 0.2000000000008322 0.0
9.799999999999999 0.0 0.0
9.6 0.0 0.0
9.399999999999999 0.0 0.0
9.2 0.0 0.0
8.999999999999998 0.0 0.0
8.799999999999997 0.0 0.0
8.599999999999998 0.0 0.0
8.399999999999997 0.0 0.0
8.199999999999998 0.0 0.0
7.999999999999997 0.0 0.0
7.799999999999997 0.0 0.0
7.599999999999998 0.0 0.0
7.399999999999997 0.0 0.0
7.199999999999998 0.0 0.0
6.999999999999997 0.0 0.0
6.799999999999997 0.0 0.0
6.599999999999998 0.0 0.0
6.399999999999997 0.0 0.0
6.199999999999998 0.0 0.0
5.999999999999997 0.0 0.0
5.799999999999998 0.0 0.0
5.599999999999998 0.0 0.0
5.399999999999999 0.0 0.0
5.199999999999998 0.0 0.0
4.999999999999999 0.0 0.0
4.799999999999999 0.0 0.0
4.599999999999999 0.0 0.0
4.399999999999999 0.0 0.0
4.199999999999999 0.0 0.0
3.999999999999999 0.0 0.0
3.799999999999999 0.0 0.0
3.599999999999999 0.0 0.0
3.399999999999998 0.0 0.0
3.199999999999998 0.0 0.0
2.999999999999999 0.0 0.0
2.799999999999998 0.0 0.0
2.599999999999998 0.0 0.0
2.399999999999999 0.0 0.0
2.199999999999999 0.0 0.0
1.999999999999998 0.0 0.0
1.799999999999999 0.0 0.0
1.6 0.0 0.0
1.4 0.0 0.0
1.199999999999999 0.0 0.0
0.9999999999999982 0.0 0.0
0.7999999999999989 0.0 0.0
0.6000000000000014 0.0 0.0
0.3999999999999986 0.0 0.0
0.1999999999999993 0.0 0.0
0.0 0.1999999999995579 0.0
0.0 0.3999999999989749 0.0
0.0 0.5999999999989468 0.0
0.0 0.7999999999994734 0.0
0.6588119917457734 0.5458527389559683 0.0
9.341187488997944 0.5458518263874214 0.0
8.741513928285622 0.5672181353373146 0.0
1.2584826978636439 0.5672258930593411 0.0
8.162958113361867 0.5724688379326351 0.0
1.837024086543494 0.572521519422778 0.0
2.430311082585428 0.597670861129194 0.0
7.569598685647976 0.5973489090057036 0.0
3.0303525885032947 0.6019270266726413 0.0
6.969142285906722 0.6000219406677888 0.0
3.628528168718441 0.600760475987244 0.0
6.368072680460907 0.5907739404805699 0.0
4.2292919907409745 0.5908895266882733 0.0
5.795182350716469 0.5279797794682436 0.0
4.80241197245311 0.5279961814394029 0.0
5.298811830288451 0.5200280177466958 0.0
9.677467072674373 0.7004620325899412 0.0
0.32253280317478544 0.7004622223256984 0.0
4.530447168051617 0.3381588772552489 0.0
3.918707504199786 0.37207868518463516 0.0
6.068026909894924 0.3381163539331609 0.0
3.319283558901987 0.37637689367802 0.0
6.679752887985915 0.37177007342180746 0.0
7.879093278183497 0.3670987859661664 0.0
2.120870694988189 0.3672198784068317 0.0
2.719986489657037 0.3753422406816573 0.0
7.2798244800781875 0.3745901403256342 0.0
9.037321201752757 0.6723777820247814 0.0
0.9626776127365461 0.672380130339443 0.0
1.5319971038410647 0.36011527106315316 0.0
8.46799595570579 0.3600966705638763 0.0
8.458383417431516 0.6797441537626802 0.0
1.5416099098960785 0.679761459273462 0.0
0.9793483223439983 0.3651636707257979 0.0
9.020650330256325 0.36516088248038464 0.0
4.527122167601463 0.690382357920884 0.0
3.9212903580943417 0.7014763394333585 0.0
6.069747113825398 0.690347004878179 0.0
2.1182648344190693 0.6916917193669678 0.0
7.881702405216023 0.6915855471807463 0.0
3.3232362296069873 0.7047773576189633 0.0
6.675651602158265 0.7012245622518313 0.0
2.7252502722145135 0.7038360521127391 0.0
7.274570420209758 0.7031833540619391 0.0
0.33282661578329586 0.30358675155769044 0.0
9.667173245383076 0.30358653209363 0.0
5.581344935307803 0.32140056108046344 0.0
5.017185124708691 0.32140602841270205 0.0
5.509471454317557 0.6940731712016627 0.0
5.087364205057462 0.694076822469766 0.0
0.6618734296185017 0.7354623183212529 0.0
9.33812618613144 0.735461657432814 0.0
8.747686669297185 0.7398603636366385 0.0
1.2523108633367475 0.739865936098082 0.0
8.67045140532812 0.2759125309414588 0.0
1.3295452519866833 0.27592074075728246 0.0
0.680376742370389 0.23684147353690996 0.0
9.319622867830589 0.23684077229193848 0.0
8.169998008506223 0.7446330888393505 0.0
1.82998912207902 0.7446704461561047 0.0
8.082329189924945 0.27788164280832395 0.0
1.9176531159813868 0.277937201861447 0.0
7.485275698287781 0.2851657111262976 0.0
2.514632132102488 0.28551745963776726 0.0
6.8852505427331225 0.28557743033989674 0.0
3.11429464342646 0.2877547269133998 0.0
6.285001444060811 0.27085690132979745 0.0
3.713684027399517 0.2860646783885938 0.0
2.4223718006438775 0.8119758750460093 0.0
7.577576194362796 0.8117947085645517 0.0
3.021522194971241 0.8147504948788369 0.0
6.9781752111331405 0.8137068969810054 0.0
3.618378952900857 0.8141403509415632 0.0
6.379528652164606 0.8096825544398631 0.0
4.216820045375182 0.8097490310816444 0.0
5.793621096949761 0.8431290175837338 0.0
4.802543508330881 0.8431363665008932 0.0
5.299574923360812 0.18562941288953724 0.0
4.313798342130267 0.2709340447754361 0.0
4.743155210525403 0.23796658158704243 0.0
5.85576232559734 0.23795025104031362 0.0
5.298365655843129 0.7170450843241343 0.0
0.19482847094817277 0.5021020114494809 0.0
9.805171445238852 0.5021018848008074 0.0
9.486976029595182 0.16229804334575865 0.0
0.5130238077860091 0.16229831674941098 0.0
9.568946588216338 0.5121359957501086 0.0
0.43105316935943366 0.5121363875450199 0.0
9.509151376577933 0.836307060506666 0.0
0.49084847778399426 0.8363072941291654 0.0
9.823689297738664 0.8277228582426671 0.0
0.1763106634094598 0.8277229143266598 0.0
7.690741177776717 0.19248495643114935 0.0
2.3092214082649027 0.19262040524915366 0.0
8.876700775658307 0.1916977514262426 0.0
1.1232978836257101 0.19170077542035216 0.0
7.090945464210208 0.1946277515395758 0.0
2.908867056866067 0.1954707905427781 0.0
6.49112963746775 0.18964503158836638 0.0
3.5084564906571445 0.19527471638328514 0.0
1.713264162289808 0.18799673356989083 0.0
8.286728649287888 0.18797571064691873 0.0
4.108058920077398 0.18975524807646962 0.0
8.577610203580424 0.8284379420142794 0.0
1.4223868855493749 0.8284451190349135 0.0
8.923369247797643 0.8261872405514039 0.0
1.0766297024062568 0.8261894380906771 0.0
0.8418421251448202 0.8248256892848462 0.0
9.15815737721765 0.8248247527552927 0.0
8.345908639286124 0.8295498553827787 0.0
1.6540856655822462 0.8295653434780486 0.0
5.592474587230674 0.5044193772960692 0.0
5.005222361753608 0.5044263236632354 0.0
7.789469099262637 0.8391936162302587 0.0
2.2105057750576633 0.8392768794223723 0.0
7.776989301886184 0.5515808513393409 0.0
2.2229582265900274 0.5517592428921392 0.0
2.815204447603007 0.8446172767743251 0.0
7.184653687431839 0.8441155527892144 0.0
3.4119818734664213 0.8448337772938018 0.0
6.587088621822838 0.8423549247829972 0.0
4.009138421451793 0.8424660627329702 0.0
5.984863759877942 0.8432982056263945 0.0
4.611304097902173 0.8433128839859483 0.0
7.175290069009066 0.5592746403253647 0.0
2.824425043135011 0.5603610484149251 0.0
6.575309420833247 0.5545747222058344 0.0
3.4229447693231574 0.5607035054793694 0.0
5.978095866409832 0.5313925153868068 0.0
4.022282727692111 0.5548066168504225 0.0
4.619491769115425 0.5314246686584942 0.0
8.549093216555171 0.5403233592623312 0.0
1.4509007694560108 0.5403385171434948 0.0
1.063252106953697 0.5315235692154361 0.0
0.8722163912439685 0.5239183200771257 0.0
8.936745984787077 0.531519549695967 0.0
9.127782562032085 0.5239162998085126 0.0
4.434069192715879 0.5459139353558083 0.0
1.6372188488364416 0.536624293637049 0.0
8.362770773321785 0.5365958195745953 0.0
2.0327499311389494 0.5489159989535985 0.0
7.967219179088955 0.5488175033256737 0.0
3.8306493780199666 0.5633801887951249 0.0
6.1634691878483885 0.5458524077546092 0.0
3.2320487512475626 0.5665030500269572 0.0
6.767006469757761 0.5629632001397544 0.0
2.6330296592895093 0.5645669657444667 0.0
7.366806183814755 0.5639565492721389 0.0
4.421683361397222 0.8397854664822016 0.0
3.821847016611329 0.8437825177810777 0.0
6.174508515845904 0.8397564456715825 0.0
1.9991336100274424 0.8336237485592485 0.0
8.000852145468313 0.8335796347678981 0.0
3.2250683166911083 0.8451459398895785 0.0
6.774427133846907 0.8435830511901731 0.0
2.6278168022113855 0.8441262769769572 0.0
7.372101556452609 0.8438368889961972 0.0
4.9219561200577715 0.18332201814645016 0.0
5.677206016346019 0.18331628078100393 0.0
0.16562950208039381 0.15676620634435964 0.0
9.83437045644232 0.15676614407544126 0.0
9.136552650688648 0.1825981571448093 0.0
0.8634467862104042 0.18259928289230368 0.0
9.486977326441785 0.6660374022095241 0.0
0.5130223975138465 0.6660378516270323 0.0
1.480233257123695 0.1581883283524173 0.0
8.519763566006734 0.15817990653018615 0.0
7.925173433785916 0.16044143892799229 0.0
2.0748098878468753 0.1604972501123514 0.0
6.138042367443781 0.1457542310351531 0.0
4.461304837587029 0.14578375648852188 0.0
[...]
POINT_DATA 386
VECTORS vector double
1.0 0.0 0.0
0.0 0.0 0.0
0.0 0.0 0.0
0.0 0.0 0.0
0.0 0.0 0.0
1.0 0.0 0.0
0.0 0.0 0.0
0.0 0.0 0.0
0.0 0.0 0.0
0.0 0.0 0.0
0.0 0.0 0.0
0.0 0.0 0.0
0.0 0.0 0.0
0.0 0.0 0.0
0.0 0.0 0.0
0.0 0.0 0.0
0.0 0.0 0.0
0.0 0.0 0.0
0.0 0.0 0.0
0.0 0.0 0.0
0.0 0.0 0.0
0.0 0.0 0.0
0.0 0.0 0.0
0.0 0.0 0.0
0.0 0.0 0.0
0.0 0.0 0.0
0.0 0.0 0.0
0.0 0.0 0.0
0.0 0.0 0.0
0.0 0.0 0.0
0.0 0.0 0.0
0.0 0.0 0.0
0.0 0.0 0.0
0.0 0.0 0.0
0.0 0.0 0.0
0.0 0.0 0.0
0.0 0.0 0.0
0.0 0.0 0.0
0.0 0.0 0.0
0.0 0.0 0.0
0.0 0.0 0.0
0.0 0.0 0.0
0.0 0.0 0.0
0.0 0.0 0.0
0.0 0.0 0.0
0.0 0.0 0.0
0.0 0.0 0.0
0.0 0.0 0.0
0.0 0.0 0.0
0.0 0.0 0.0
0.0 0.0 0.0
0.0 0.0 0.0
0.0 0.0 0.0
0.0 0.0 0.0
0.966292139754 0.0916196041642 0.0
1.40034284363 -0.00167089501481 0.0
1.38906123853 -0.00897335639259 0.0
0.954810640916 -0.0890189786232 0.0
0.0 0.0 0.0
0.0 0.0 0.0
0.0 0.0 0.0
0.0 0.0 0.0
0.0 0.0 0.0
0.0 0.0 0.0
0.0 0.0 0.0
0.0 0.0 0.0
0.0 0.0 0.0
0.0 0.0 0.0
0.0 0.0 0.0
0.0 0.0 0.0
0.0 0.0 0.0
0.0 0.0 0.0
0.0 0.0 0.0
0.0 0.0 0.0
0.0 0.0 0.0
0.0 0.0 0.0
0.0 0.0 0.0
0.0 0.0 0.0
0.0 0.0 0.0
0.0 0.0 0.0
0.0 0.0 0.0
0.0 0.0 0.0
0.0 0.0 0.0
0.0 0.0 0.0
0.0 0.0 0.0
0.0 0.0 0.0
0.0 0.0 0.0
0.0 0.0 0.0
0.0 0.0 0.0
0.0 0.0 0.0
0.0 0.0 0.0
0.0 0.0 0.0
0.0 0.0 0.0
0.0 0.0 0.0
0.0 0.0 0.0
0.0 0.0 0.0
0.0 0.0 0.0
0.0 0.0 0.0
0.0 0.0 0.0
0.0 0.0 0.0
0.0 0.0 0.0
0.0 0.0 0.0
0.0 0.0 0.0
0.0 0.0 0.0
0.0 0.0 0.0
0.0 0.0 0.0
0.0 0.0 0.0
1.0 0.0 0.0
1.0 0.0 0.0
1.0 0.0 0.0
1.0 0.0 0.0
1.23800193548 -0.0454909815082 0.0
1.43984246086 -0.0102119086483 0.0
1.43299592242 -0.00465048706733 0.0
1.35271724575 -0.00905687944034 0.0
1.43153896768 -0.00132925616098 0.0
1.40165412623 0.00529317053015 0.0
1.39547223921 0.00358348956164 0.0
1.40741992535 2.14256114577e-05 0.0
1.3997184972 0.000328220396136 0.0
1.40328128866 -0.00176091746746 0.0
1.40256662847 -0.000682685597867 0.0
1.40203116657 -0.00626378710761 0.0
1.40918501348 -0.00175290665569 0.0
1.41972825446 0.00316567960291 0.0
1.43751356305 0.00372692386419 0.0
1.46392745224 0.00545105662181 0.0
1.27475902862 0.00210978501039 0.0
1.14259300485 -0.12199361072 0.0
1.27963825054 0.00888142877564 0.0
1.33636166422 0.000609189987827 0.0
1.26076852283 -0.00745263927036 0.0
1.34472286197 0.00249833940615 0.0
1.32459173023 -0.000988413028559 0.0
1.32719199034 -0.000758631767426 0.0
1.34530266271 0.0123121215838 0.0
1.34850864118 0.00531900117203 0.0
1.33470326092 -4.52545907326e-05 0.0
1.32981141515 -0.00593306543165 0.0
1.269854438 -0.0301201340171 0.0
1.33530809945 0.0247198301866 0.0
1.32095495192 -0.00432654135115 0.0
1.32643570284 -0.00394596451631 0.0
1.27899510721 0.00115675300758 0.0
1.30419753896 0.0175146282762 0.0
1.34211880776 -0.0104271611857 0.0
1.28528094066 -0.00283236096701 0.0
1.25712690121 0.0026727792767 0.0
1.28993045458 0.0026483048742 0.0
1.26479144109 0.0111167752156 0.0
1.29411408531 -0.00746918780038 0.0
1.24839752736 0.00366083364542 0.0
1.26460032425 -0.00509651814192 0.0
1.24352913411 0.0044633374718 0.0
1.25958009081 -0.00097364822912 0.0
1.11170013232 0.0868233103886 0.0
1.26493586256 -0.0114679539983 0.0
1.23146690168 0.00453907887978 0.0
1.2394392832 -0.00141860344296 0.0
1.24897708491 0.033596401913 0.0
1.25313576424 -0.0184590823813 0.0
1.19784149762 -0.0733415428538 0.0
1.20380427223 -0.00585130942307 0.0
1.19753324695 -0.00506031409152 0.0
1.15987405905 -0.0135344806407 0.0
1.15544065155 0.00323093278963 0.0
1.19985279462 0.0157349385777 0.0
1.15692290185 0.0300873407425 0.0
1.10292896338 -0.0081876876707 0.0
1.19610229358 -0.0023234447273 0.0
1.1611956462 0.000307848197938 0.0
1.15727092786 0.00801482350947 0.0
1.19136893802 0.00211390111919 0.0
1.17225040119 0.00812433748081 0.0
1.19201455156 -0.00387237113909 0.0
1.17165190292 0.00738036372986 0.0
1.1879412796 -0.00716301991966 0.0
1.13876189599 0.00286776251956 0.0
1.1800689573 -0.00735016375358 0.0
0.959986685952 -0.00191246670466 0.0
0.981457109229 0.0011435412751 0.0
0.957824795391 0.00047884035373 0.0
0.978768516121 -0.00321246180645 0.0
0.964456628239 0.000735643850755 0.0
1.00606726728 -0.00544544075154 0.0
0.980919923802 -0.00156502185919 0.0
0.905233071691 0.0011741609098 0.0
0.87179969475 0.000926085956106 0.0
0.919527151724 0.00112904800501 0.0
1.15025777626 -0.0029045722095 0.0
0.977746749046 -0.0225509943806 0.0
0.969938337832 0.0205538565701 0.0
1.15478160871 0.0116697184022 0.0
0.992047101155 -0.0108744052108 0.0
1.44993203514 -0.00767144989095 0.0
0.843645570848 0.000125078923516 0.0
1.05013208108 0.057029973448 0.0
1.45731854881 -0.0065256509892 0.0
1.11960028087 -0.0254138307387 0.0
0.846893639381 -0.0050726188042 0.0
1.08393881562 -0.0812425715515 0.0
0.826866125823 -0.0543650681424 0.0
1.19108214212 -0.17691194224 0.0
0.922788870685 -0.00733544957903 0.0
0.94874549053 0.0118681665029 0.0
0.922498946045 -0.0118272326473 0.0
1.02544977606 0.0284277807682 0.0
0.931127909072 -0.0083696798084 0.0
0.945362008166 0.00961856105126 0.0
0.916866379046 -0.00958922819863 0.0
0.940172154891 0.00935649602714 0.0
0.965072814978 0.0201050928908 0.0
0.909280390144 -0.00963121554648 0.0
0.922805111847 0.010082028413 0.0
0.896476356334 -0.0100002741097 0.0
0.883412005792 0.00249406925072 0.0
0.898040608116 0.00755387355666 0.0
0.91820491082 -0.0273583444104 0.0
0.964910114855 -0.0247935133566 0.0
0.897057037126 -0.0138403888993 0.0
0.896218713118 0.0100595855179 0.0
0.876169683053 -0.0125366365515 0.0
1.42375320075 -0.00940235043089 0.0
1.4370723267 0.0179611537654 0.0
0.863849587618 -0.00760073490977 0.0
0.84356613496 0.00700127139497 0.0
1.46342161525 0.00142106632091 0.0
1.45168869591 0.0043339478201 0.0
0.839056756871 -0.00122926540523 0.0
0.857605782359 0.000311913894818 0.0
0.842960344071 -0.000109779525658 0.0
0.874764607001 -0.00524238102179 0.0
0.854188373973 0.000828627319104 0.0
0.906865186248 0.00407503766914 0.0
0.86960920685 -0.0041460297893 0.0
1.45740405407 0.00468173675381 0.0
1.45668813739 -0.00234527328468 0.0
1.45167439674 0.00193523838875 0.0
1.45824089873 -0.00427437394281 0.0
1.43473306632 -0.000714001289754 0.0
1.45996272149 -0.00734062439303 0.0
1.45654698484 0.00330380698331 0.0
1.45689612702 -0.00528054134114 0.0
1.40381728444 0.00833798844298 0.0
1.34813765195 -0.0121096695497 0.0
1.31122958901 -0.023944735711 0.0
1.46552911087 -0.00683842314727 0.0
1.46040036051 -0.0153089517119 0.0
1.44754255515 -0.000135858226279 0.0
1.43078632372 0.00948818870376 0.0
1.47208281136 -0.00519129897404 0.0
1.43867797059 0.014105006368 0.0
1.45378166039 -0.00490046818258 0.0
1.44230490178 0.0100740327977 0.0
1.42695376314 -0.00167475568293 0.0
1.44108394566 0.0119108724838 0.0
1.43579280313 -0.0122490033621 0.0
1.43890359861 0.0147178050387 0.0
1.44038258681 -0.00871515751339 0.0
0.8603997203 -0.00608333143585 0.0
0.84865354769 0.00354598588206 0.0
0.897152486427 0.00353691825772 0.0
0.870940895866 0.0182574134591 0.0
0.89343871766 -0.0189211101509 0.0
0.839489326702 0.00277586568454 0.0
0.866670245133 -0.00480599838365 0.0
0.837919102794 0.000958669357172 0.0
0.857800864175 -3.19900505123e-05 0.0
0.898031005995 0.0495906984064 0.0
0.894541645305 -0.0509687826518 0.0
1.10804580874 0.143868720775 0.0
0.831499147648 -0.0168529222841 0.0
0.900731889597 0.00594212733352 0.0
1.02629307471 0.00593006482294 0.0
1.32831942821 -0.0193631769956 0.0
1.23072803772 -0.111062974111 0.0
0.88810555349 0.00702978274567 0.0
0.813576683043 0.00698528028795 0.0
0.818310045801 0.00939045798111 0.0
0.851346026918 -0.00323526939687 0.0
0.778405146059 0.0211820255416 0.0
0.78085955167 -0.0199655214083 0.0
0.83201842796 0.00937584403595 0.0
0.847144828328 -0.00666816196916 0.0
0.829213608341 0.00779057333705 0.0
0.843703834175 -0.0071837281122 0.0
1.36863681172 -0.00464355749448 0.0
1.33613423637 0.0150525874119 0.0
0.834337167391 -0.00571366684938 0.0
1.36966655526 0.00305437499874 0.0
1.37861346027 0.0127558951885 0.0
0.883769040472 -0.00292560844185 0.0
0.91616059184 0.134933534175 0.0
1.39760619029 0.0023389442792 0.0
1.38482414639 0.00663149844247 0.0
0.906367274898 -0.0181571281015 0.0
0.8811680947 0.00343801506671 0.0
1.39760266727 -0.00329454667882 0.0
1.38440823239 0.00630817694977 0.0
1.36494583651 0.00589762978805 0.0
1.39361653135 -0.00530818743169 0.0
0.879300952588 0.0230578851967 0.0
1.38250748778 -0.00812232379323 0.0
1.30615975875 0.0241198288368 0.0
1.32111125384 -0.0223557594713 0.0
1.31515164062 0.00428413505693 0.0
1.2637420516 -0.0155351458501 0.0
1.29439197075 0.00392047035908 0.0
1.28188640555 0.00304425827345 0.0
1.29575174134 0.00111637824976 0.0
1.28528319994 -0.00757451831345 0.0
1.26056934627 0.010117888797 0.0
1.2888141575 -0.00835640855808 0.0
1.26943869627 0.00538676352763 0.0
1.26381638779 0.00635272031318 0.0
1.27881420736 -0.00534237384003 0.0
1.31617800051 -0.0142392291055 0.0
1.26034710323 -0.0174583909742 0.0
1.29316358604 -0.00448440211568 0.0
1.28022772349 -0.00218426750399 0.0
1.31397259751 0.00436481842926 0.0
1.27602435799 0.00839735650309 0.0
1.31697387707 -0.00988545847974 0.0
1.25723919619 -0.0628641977006 0.0
1.32484289991 0.00104365425671 0.0
1.27270741473 -0.00433248954679 0.0
1.29929093601 -0.00406622068089 0.0
1.26514255805 -0.00366259035653 0.0
1.2804230249 0.000310991971517 0.0
1.20689764477 0.0411486899687 0.0
1.33950948318 -0.00194062050563 0.0
1.25981731157 -0.00203085891914 0.0
1.27927614384 0.00356425452062 0.0
1.31358598537 -0.00640123931483 0.0
1.31732736107 0.0127119944452 0.0
0.929095617169 -0.12183142443 0.0
1.30830241906 -0.010942553347 0.0
1.31178476453 0.0197777331982 0.0
1.4582926758 0.00276210625048 0.0
1.45221216886 0.0118679925356 0.0
1.28657737461 0.00037431317304 0.0
0.99469316522 0.0804284957642 0.0
0.714343859577 -0.01015821851 0.0
1.07928725238 0.123531061604 0.0
1.03503587315 -0.099087627644 0.0
1.31541461341 -0.00628689085142 0.0
1.34032215777 -0.00706599821901 0.0
1.24943671943 0.0185965499194 0.0
1.41726957217 -0.0151169628352 0.0
1.37736521004 0.0308423288708 0.0
0.827984415384 0.0678428049023 0.0
0.737155287254 0.0296547937152 0.0
1.17644452988 -0.15587475551 0.0
0.829218713247 -0.0667390686291 0.0
1.41742504186 -0.012318214992 0.0
1.41709340145 0.0251994391783 0.0
0.64520692129 0.0214129373473 0.0
0.680410988696 0.00945930996166 0.0
0.6437098312 -0.0220444729174 0.0
1.43630462616 0.0189889613218 0.0
1.42904686474 -0.0118429244821 0.0
1.39938358021 -0.0072838851734 0.0
1.3773174109 0.00832435932751 0.0
1.43669802926 0.0146593189841 0.0
1.42477178118 -0.0131250131562 0.0
1.43382243025 0.0130869517131 0.0
1.40572606092 -0.00541375398791 0.0
0.686187066897 0.0086457908156 0.0
0.675018011228 -0.00910004666606 0.0
1.42763773613 0.00418894319537 0.0
0.688700132617 0.00931710567601 0.0
0.672831016353 -0.00735667908911 0.0
0.699532250574 0.0149861609654 0.0
0.660123475983 -0.0076081379809 0.0
0.83132153711 -0.0271044330211 0.0
0.684731640539 -0.0203544399648 0.0
0.704772629501 -2.64285576822e-05 0.0
0.715435437589 -0.0107231180783 0.0
0.771798902791 0.038396065493 0.0
0.672443567026 -0.0201326760746 0.0
0.699132272385 0.00516273192249 0.0
0.683730718001 -0.00640141602662 0.0
0.598361356369 0.028230064752 0.0
1.23282493282 -0.0899417552299 0.0
0.800084480745 -0.00053115715487 0.0
0.627516175057 0.023719685425 0.0

SCALARS scalar1 double
LOOKUP_TABLE default
3.48437811548
5.82464054743
5.95077060891
6.23489234173
-5.6588491522
-2.40366178701
11.4151278947
10.1209427549
7.64696232379
6.77645685156
6.11150640559
6.07118046349
6.01219702982
5.65656757746
5.98333686891
5.71946609098
5.73190400354
5.82394740925
5.88330129301
5.87288589972
5.85693043042
5.92955814587
5.90228922592
5.88319256567
5.93955944296
5.89920817449
5.78482666002
6.04812819849
6.25501559288
6.0492848646
7.61886843012
4.62759137899
7.83085392357
6.37136493873
6.6017616031
6.41381090659
6.04277179994
6.07926909939
6.109430402
5.99509532641
5.99202303551
6.02681212075
5.96414279451
5.87192108213
5.86423795081
6.12389656276
5.73145596918
5.956292213
5.89338649208
5.63372318478
5.74019075456
5.66890619288
6.25902424467
5.95472382633
3.29826365944
1.03226105066
-1.03445949447
-3.19590136885
-5.97874420008
-6.11153727871
-5.62516561028
-5.31381677919
-5.5369471077
-5.38806031327
-5.89525304521
-5.58742816473
-5.41187368194
-5.7326027832
-5.56797904513
-5.3824252329
-5.7305873935
-5.57489767222
-5.3826783011
-5.74623158509
-5.6599097207
-5.37442669347
-5.69566697463
-6.93523300401
-4.71960017183
-5.71714716124
-5.61729803886
-5.62219003166
-5.72834678276
-4.72508166008
-6.91708614647
-5.6886731813
-5.38502463012
-5.68228849059
-5.76960265471
-5.41687754389
-5.62077078948
-5.78132457556
-5.43982756795
-5.65564908547
-5.83663556416
-5.53207525657
-5.78813843799
-6.04650495631
-5.79220785909
-6.12692236637
-6.76548940473
-6.25219970404
-6.57276232424
-6.70333714497
-7.48768013069
-9.59631247874
-10.587277278
2.53002981177
-0.0917297551103
-0.00635172850643
-3.44819634131
-0.201465940998
0.362217956249
0.515058773792
0.454180963068
0.533735507172
0.673093164083
0.91892547122
0.789014526538
0.923225308373
0.800719241079
0.879567338733
0.619152508575
0.760849510356
0.0369779173673
0.0807037711272
-0.00581819879141
2.14630015617
-1.12291923896
-1.80929844476
-1.47121889585
-1.69884869642
-1.42368442582
-1.4332360334
-1.54227372909
-1.37538437216
-1.40558331448
-1.44435766257
1.75091616686
1.0668310831
-1.11415541878
-1.60667140375
1.79669734697
1.67759118129
-0.320883349784
-1.51971784658
1.91554132401
2.03981136068
1.59057466572
1.93935884072
1.9126162602
2.09322954901
1.94378150845
2.09169097424
2.02609548971
0.742391404082
-2.08227451716
-1.91057589539
-1.9243874878
1.66090089475
1.84371477518
1.22083203647
2.53617451874
2.56219490266
2.23638363513
-2.50236570388
-1.93324088088
-1.78950013126
-2.84986219658
2.59857446533
2.52676993223
-2.48715393946
-2.34148257119
-2.39492024722
-2.36758624992
-2.3570098952
-2.35529470709
-2.44822201564
-2.36713505857
3.3949595354
3.43481606709
3.4719940158
3.44861609106
3.47218718029
3.30393807906
3.4091618009
3.74747331851
3.90985727903
-3.32753402057
-2.52772513009
-2.81658156317
-2.70686132994
2.01040717211
-0.0891055132774
-0.0284464003318
-3.72261402536
-2.95410237938
0.0460877528162
-0.197801497593
3.81212471415
3.09697631746
3.81484826127
-0.749034854401
-3.36850926207
-3.44620538941
-3.39613475474
-2.95019230727
-3.32758773164
-3.38826921702
-3.33253098111
-3.36583466662
-3.44651703914
-3.43026573189
-3.42321713892
3.72023523916
3.52722048394
3.67131115146
3.41759333051
3.31686565891
3.65522401018
3.73052870628
3.57195993046
-0.156664591634
-0.177064040135
3.81430892007
3.72058311109
0.311729135543
0.45871564372
3.85842160804
3.8841734083
3.88340867136
3.82292073258
3.85162376878
3.79130526805
3.91202727946
0.385273769097
0.491008029638
0.287896621975
0.456088478237
0.0491531600682
0.37568213153
0.131511062713
0.213565967678
0.348674075977
0.107106737775
-0.0369095003215
0.161378086647
0.103616510679
0.294193127659
0.322807784624
0.169778752246
0.446239624643
0.277945838302
0.471381141446
0.172537680062
0.529458234157
0.396322442367
0.551686941956
0.435523225182
3.81977278613
3.86866548277
3.73057632932
3.66493824106
3.79231310472
3.88130145965
3.85607673864
3.83785829665
3.88117708377
-3.31884028603
-3.2671532463
0.0164991901127
-3.87019030649
-3.47779630797
-2.95158874014
1.74603918165
-0.598449686136
-3.81181945845
-3.80476961585
-3.75768125119
-3.83040185108
-3.88207720314
-3.89942949505
-3.7079059939
-3.7458814631
-3.70257909235
-3.70388447489
-1.25743464248
-0.370257512866
-3.71667973194
-1.27229772323
-0.900776960571
-3.40030525833
3.83347955901
-1.00211738258
-1.14610803065
3.72473079062
-3.42326471235
-1.03353275527
-1.0864283823
-1.14774289795
-1.06299445999
3.93661758854
-1.1604492269
-1.51534718703
-1.52825023836
1.68166858603
1.55051685047
1.83137798588
1.99528689949
1.55913878631
2.01199727968
2.0018320125
1.93930140878
2.06788815416
2.08201752735
2.06618007424
1.69902341195
1.14921538813
2.00000605132
1.80427512038
1.73691095589
1.63028647407
1.72225653867
0.758969410514
1.60869538433
2.11438130042
1.6762508592
2.15075280867
1.97574974166
0.249128961035
-1.55894912399
2.12990588638
2.01192011305
-1.33847913332
-1.3730960636
3.63457373373
1.54101641345
1.73386270228
0.425098435018
0.405322623819
-1.96867375129
1.13558930677
-4.31167904152
-3.47964887305
-1.60182801405
1.9952857004
-1.4523292206
-0.0345257544762
-0.913881643975
-0.302757844691
-3.79533966489
4.34093303054
3.71888405505
-3.93446836665
-0.884795496781
-0.618516973047
-4.16555009885
-4.08830420233
-4.1270848886
-0.638782249058
-0.73757682303
-1.18327550916
-1.15914329165
-0.670507910051
-0.714144745277
-0.713323014414
-0.870768908474
-4.10058174944
-4.09397425671
-0.881083385885
-4.16302964189
-4.10660338945
-4.27687910383
-4.15587722772
4.40978714613
4.33051432846
4.38994366663
4.25662636844
-4.26976812303
-4.1849240152
4.47066812296
4.30596953773
4.80185172055
1.11700408791
-4.30749146037
-4.2093476475

SCALARS scalar2 double
LOOKUP_TABLE default
3.48437811548
5.82464054743
5.95077060891
6.23489234173
-5.6588491522
-2.40366178701
11.4151278947
10.1209427549
7.64696232379
6.77645685156
6.11150640559
6.07118046349
6.01219702982
5.65656757746
5.98333686891
5.71946609098
5.73190400354
5.82394740925
5.88330129301
5.87288589972
5.85693043042
5.92955814587
5.90228922592
5.88319256567
5.93955944296
5.89920817449
5.78482666002
6.04812819849
6.25501559288
6.0492848646
7.61886843012
4.62759137899
7.83085392357
6.37136493873
6.6017616031
6.41381090659
6.04277179994
6.07926909939
6.109430402
5.99509532641
5.99202303551
6.02681212075
5.96414279451
5.87192108213
5.86423795081
6.12389656276
5.73145596918
5.956292213
5.89338649208
5.63372318478
5.74019075456
5.66890619288
6.25902424467
5.95472382633
3.29826365944
1.03226105066
-1.03445949447
-3.19590136885
-5.97874420008
-6.11153727871
-5.62516561028
-5.31381677919
-5.5369471077
-5.38806031327
-5.89525304521
-5.58742816473
-5.41187368194
-5.7326027832
-5.56797904513
-5.3824252329
-5.7305873935
-5.57489767222
-5.3826783011
-5.74623158509
-5.6599097207
-5.37442669347
-5.69566697463
-6.93523300401
-4.71960017183
-5.71714716124
-5.61729803886
-5.62219003166
-5.72834678276
-4.72508166008
-6.91708614647
-5.6886731813
-5.38502463012
-5.68228849059
-5.76960265471
-5.41687754389
-5.62077078948
-5.78132457556
-5.43982756795
-5.65564908547
-5.83663556416
-5.53207525657
-5.78813843799
-6.04650495631
-5.79220785909
-6.12692236637
-6.76548940473
-6.25219970404
-6.57276232424
-6.70333714497
-7.48768013069
-9.59631247874
-10.587277278
2.53002981177
-0.0917297551103
-0.00635172850643
-3.44819634131
-0.201465940998
0.362217956249
0.515058773792
0.454180963068
0.533735507172
0.673093164083
0.91892547122
0.789014526538
0.923225308373
0.800719241079
0.879567338733
0.619152508575
0.760849510356
0.0369779173673
0.0807037711272
-0.00581819879141
2.14630015617
-1.12291923896
-1.80929844476
-1.47121889585
-1.69884869642
-1.42368442582
-1.4332360334
-1.54227372909
-1.37538437216
-1.40558331448
-1.44435766257
1.75091616686
1.0668310831
-1.11415541878
-1.60667140375
1.79669734697
1.67759118129
-0.320883349784
-1.51971784658
1.91554132401
2.03981136068
1.59057466572
1.93935884072
1.9126162602
2.09322954901
1.94378150845
2.09169097424
2.02609548971
0.742391404082
-2.08227451716
-1.91057589539
-1.9243874878
1.66090089475
1.84371477518
1.22083203647
2.53617451874
2.56219490266
2.23638363513
-2.50236570388
-1.93324088088
-1.78950013126
-2.84986219658
2.59857446533
2.52676993223
-2.48715393946
-2.34148257119
-2.39492024722
-2.36758624992
-2.3570098952
-2.35529470709
-2.44822201564
-2.36713505857
3.3949595354
3.43481606709
3.4719940158
3.44861609106
3.47218718029
3.30393807906
3.4091618009
3.74747331851
3.90985727903
-3.32753402057
-2.52772513009
-2.81658156317
-2.70686132994
2.01040717211
-0.0891055132774
-0.0284464003318
-3.72261402536
-2.95410237938
0.0460877528162
-0.197801497593
3.81212471415
3.09697631746
3.81484826127
-0.749034854401
-3.36850926207
-3.44620538941
-3.39613475474
-2.95019230727
-3.32758773164
-3.38826921702
-3.33253098111
-3.36583466662
-3.44651703914
-3.43026573189