# vtk DataFile Version 2.0
2D Simulation Python
ASCII
DATASET UNSTRUCTURED_GRID
FIELD FieldData 1
NODES 1 2 int
386 659

POINTS 386 double
0.0 1.0 0.0
1.725 1.0 0.0
8.275 1.0 0.0
10.0 1.0 0.0
10.0 0.0 0.0
0.0 0.0 0.0
0.1916666666663293 1.0 0.0
0.3833333333324708 1.0 0.0
0.574999999998553 1.0 0.0
0.7666666666645966 1.0 0.0
0.9583333333312576 1.0 0.0
1.149999999998384 1.0 0.0
1.341666666665662 1.0 0.0
1.533333333332819 1.0 0.0
1.92348484848444 1.0 0.0
2.121969696968978 1.0 0.0
2.320454545453434 1.0 0.0
2.518939393937826 1.0 0.0
2.717424242422235 1.0 0.0
2.915909090906411 1.0 0.0
3.1143939393908 1.0 0.0
3.312878787875129 1.0 0.0
3.511363636359531 1.0 0.0
3.709848484843827 1.0 0.0
3.90833333332816 1.0 0.0
4.106818181812215 1.0 0.0
4.305303030296804 1.0 0.0
4.503787878781365 1.0 0.0
4.702272727265711 1.0 0.0
4.900757575750005 1.0 0.0
5.099242424235156 1.0 0.0
5.297727272720327 1.0 0.0
5.496212121205663 1.0 0.0
5.694696969690998 1.0 0.0
5.89318181817668 1.0 0.0
6.09166666666213 1.0 0.0
6.290151515147423 1.0 0.0
6.488636363633031 1.0 0.0
6.687121212118713 1.0 0.0
6.885606060604342 1.0 0.0
7.084090909089381 1.0 0.0
7.282575757574369 1.0 0.0
7.481060606059355 1.0 0.0
7.679545454544343 1.0 0.0
7.878030303029329 1.0 0.0
8.076515151514705 1.0 0.0
8.46666666666447 1.0 0.0
8.658333333329285 1.0 0.0
8.84999999999549 1.0 0.0
9.041666666661694 1.0 0.0
9.233333333327899 1.0 0.0
9.42499999999549 1.0 0.0
9.616666666663775 1.0 0.0
9.808333333331985 1.0 0.0
10.0 0.7999999999999998 0.0
10.0 0.6000000000013869 0.0
10.0 0.4000000000016644 0.0
10.0 0.2000000000008322 0.0
9.799999999999999 0.0 0.0
9.6 0.0 0.0
9.399999999999999 0.0 0.0
9.2 0.0 0.0
8.999999999999998 0.0 0.0
8.799999999999997 0.0 0.0
8.599999999999998 0.0 0.0
8.399999999999997 0.0 0.0
8.199999999999998 0.0 0.0
7.999999999999997 0.0 0.0
7.799999999999997 0.0 0.0
7.599999999999998 0.0 0.0
7.399999999999997 0.0 0.0
7.199999999999998 0.0 0.0
6.999999999999997 0.0 0.0
6.799999999999997 0.0 0.0
6.599999999999998 0.0 0.0
6.399999999999997 0.0 0.0
6.199999999999998 0.0 0.0
5.999999999999997 0.0 0.0
5.799999999999998 0.0 0.0
5.599999999999998 0.0 0.0
5.399999999999999 0.0 0.0
5.199999999999998 0.0 0.0
4.999999999999999 0.0 0.0
4.799999999999999 0.0 0.0
4.599999999999999 0.0 0.0
4.399999999999999 0.0 0.0
4.199999999999999 0.0 0.0
3.999999999999999 0.0 0.0
3.799999999999999 0.0 0.0
3.599999999999999 0.0 0.0
3.399999999999998 0.0 0.0
3.199999999999998 0.0 0.0
2.999999999999999 0.0 0.0
2.799999999999998 0.0 0.0
2.599999999999998 0.0 0.0
2.399999999999999 0.0 0.0
2.199999999999999 0.0 0.0
1.999999999999998 0.0 0.0
1.799999999999999 0.0 0.0
1.6 0.0 0.0
1.4 0.0 0.0
1.199999999999999 0.0 0.0
0.9999999999999982 0.0 0.0
0.7999999999999989 0.0 0.0
0.6000000000000014 0.0 0.0
0.3999999999999986 0.0 0.0
0.1999999999999993 0.0 0.0
0.0 0.1999999999995579 0.0
0.0 0.3999999999989749 0.0
0.0 0.5999999999989468 0.0
0.0 0.7999999999994734 0.0
0.6587464631980253 0.5455209762400193 0.0
9.341253306154234 0.5455207917653995 0.0
8.741731725368213 0.5665197407389612 0.0
1.258265880857755 0.5665226234149124 0.0
8.163329028132722 0.5715199364052791 0.0
1.8366535346181583 0.5715509233386213 0.0
2.4298783436105893 0.5966256255887347 0.0
7.570020263796049 0.5963712044733461 0.0
3.029863868967985 0.6008239406183269 0.0
6.969575996689203 0.5990770711927278 0.0
3.6280264661197936 0.5997266255867241 0.0
6.368429230024301 0.5899931593214034 0.0
4.2288712616217135 0.590062480085195 0.0
5.795381425437845 0.527350879485158 0.0
4.802149115462586 0.5273459937584886 0.0
5.298782308091569 0.519500603065029 0.0
9.677485691210693 0.7003359073218026 0.0
0.3225142676584542 0.7003359329755575 0.0
4.530140543995399 0.3375238389528643 0.0
3.9182719829019637 0.3712098547992134 0.0
6.068278432719285 0.3375099767691574 0.0
3.3188240924211634 0.3753811390250326 0.0
6.68012753730913 0.3709634321973317 0.0
7.879450115477359 0.36623290570837114 0.0
2.1205110194045975 0.36631906166085426 0.0
2.7195651790669477 0.374354066588953 0.0
7.280221061058713 0.3736986036525489 0.0
9.037438874670128 0.6719165328429408 0.0
0.9625604662614093 0.6719171620966783 0.0
1.531744935024354 0.35939126160686347 0.0
8.468249020179494 0.35938199160540435 0.0
8.458648148392987 0.6790020130446944 0.0
1.541346224747728 0.6790100936156974 0.0
0.9792279640678054 0.36469854705209176 0.0
9.020771230317228 0.36469771005812185 0.0
4.526817267530411 0.6897506408585626 0.0
3.920864970905071 0.7006336527322197 0.0
6.069996570708435 0.6897429524045835 0.0
2.117903285535282 0.6907881196744098 0.0
7.882061751040486 0.6907154803672766 0.0
3.3227871091393704 0.7038064924816434 0.0
6.676017822396666 0.7004403174335266 0.0
2.7248385309575442 0.7028704722290261 0.0
7.274958766950857 0.7023125112428867 0.0
0.33280666090953376 0.30345724476152725 0.0
9.66719328952588 0.3034572113658632 0.0
5.581433029035063 0.32092538086687494 0.0
5.017045582551481 0.32092070976179554 0.0
5.509531130287834 0.6936220479448011 0.0
5.087255014810839 0.6936182367326265 0.0
0.6618231203452596 0.73520221906317 0.0
9.338176716083145 0.7352020940555251 0.0
8.747853603113944 0.7393227419624648 0.0
1.2521446889938868 0.7393247285069472 0.0
8.670626985941269 0.2753717904369042 0.0
1.3293704180873547 0.27537528812019496 0.0
0.6803295697835873 0.23660399906698787 0.0
9.319670249170754 0.23660384606701163 0.0
8.1702839713914 0.7439013429419512 0.0
1.829703596419844 0.7439226558928527 0.0
8.082611489672571 0.2771708453062628 0.0
1.9173703869392997 0.2772065595879151 0.0
7.485609657458917 0.2843980907844822 0.0
2.514286161907134 0.28468861479386026 0.0
6.885587658871742 0.2848458246177926 0.0
3.113906238725126 0.2868877148018031 0.0
6.285264942460813 0.270270499558965 0.0
3.7132935673031278 0.2852673656441905 0.0
2.4221144859304125 0.8113539612679996 0.0
7.577827163867654 0.8112123464059237 0.0
3.0212321459533955 0.8140953239448077 0.0
6.9784331445458765 0.8131451430331885 0.0
3.61808068553158 0.8135257630657988 0.0
6.379741373872304 0.8092175861879678 0.0
4.216569146239561 0.8092566194815807 0.0
5.7937150901800445 0.842830304807096 0.0
4.802419137523336 0.8428276478327638 0.0
5.299559534977482 0.18535245033661474 0.0
4.313485527965106 0.27031438701423144 0.0
4.74295916592368 0.23751464636104905 0.0
5.85591562555597 0.2375149449154248 0.0
5.298343235568864 0.716642430180847 0.0
0.19481592184139107 0.5020129217864623 0.0
9.80518405108253 0.5020129051504781 0.0
9.486997904265841 0.16217316789960382 0.0
0.5130020296607357 0.16217321779375848 0.0
9.568980979040782 0.511928283970736 0.0
0.431018930222705 0.511928347115762 0.0
9.509172346107649 0.8361816498282835 0.0
0.49082760024270655 0.8361816862083342 0.0
9.823695313677334 0.8276759455948041 0.0
0.176304675034303 0.8276759518679996 0.0
7.690965258081468 0.19195611993865516 0.0
2.3089930482145142 0.1920612139813226 0.0
8.876795249038416 0.19137281856147215 0.0
1.123203831506067 0.19137391107858412 0.0
7.09118457923148 0.19409994333832492 0.0
2.9086041424434126 0.19486790430200832 0.0
6.491338187885508 0.18919319812017374 0.0
3.5081796511525223 0.19469182923451678 0.0
1.7130905763081445 0.18752639604195234 0.0
8.286902537101545 0.1875142913147858 0.0
4.107814674673692 0.18927302359759623 0.0
8.577753314274288 0.8280158115704535 0.0
1.4222443912304383 0.8280188670132143 0.0
8.923459013011055 0.8258660428540363 0.0
1.0765403442374908 0.8258667089373172 0.0
0.8417868998371771 0.8245846739934659 0.0
9.158212847923691 0.8245844509916125 0.0
8.346087045493308 0.8290707623671191 0.0
1.6539078430413614 0.8290786505290922 0.0
5.592582688690753 0.503860805317416 0.0
5.005054082165997 0.5038554044892317 0.0
7.789684956947384 0.8386779727802605 0.0
2.2102876740643986 0.8387375961725976 0.0
7.7774092072439425 0.5505794680673605 0.0
2.2225332988047293 0.5507098969863016 0.0
2.81495682035355 0.8440426359041097 0.0
7.184883754695941 0.8436045832115878 0.0
3.41171594322441 0.8442673703609584 0.0
6.587297944065965 0.8419063397101303 0.0
4.00889449777465 0.8419864269440697 0.0
5.984992348551499 0.8429670691821353 0.0
4.611144050100244 0.8429678397201535 0.0
7.17574197133906 0.558270849694201 0.0
2.823937331288864 0.5592306037741042 0.0
6.575719151609911 0.5536943068572813 0.0
3.4224220349079153 0.5595904018697858 0.0
5.978360956791718 0.5307096355064106 0.0
4.021804936073041 0.553864679188958 0.0
4.619161913353234 0.5307128829359941 0.0
8.549369379237163 0.5395175103846888 0.0
1.4506257566308591 0.5395242458447819 0.0
1.063090774389023 0.5309338329591679 0.0
0.8721060876076299 0.5234518908948353 0.0
8.936908048306071 0.5309325887624603 0.0
9.127893357560962 0.5234513770802364 0.0
4.433682277493603 0.545134097225385 0.0
1.6368943809088912 0.5357284379912505 0.0
8.363096271831443 0.5357137049435458 0.0
2.03234089163212 0.5478805420628178 0.0
7.967626764415532 0.547815265505856 0.0
3.8301397041284733 0.5623580344493996 0.0
6.163790594201388 0.5451099281709524 0.0
3.2315257208887953 0.5653555902663764 0.0
6.767446059596234 0.5620175918845015 0.0
2.6325563168133828 0.5634462148930287 0.0
7.367257875633363 0.5629328628793945 0.0
4.421489371567755 0.8393948048007522 0.0
3.821590146742722 0.8432686089889071 0.0
6.174669580966644 0.8393843123212983 0.0
1.9989209800406902 0.8330830209599088 0.0
8.00106434557561 0.8330548403230562 0.0
3.224804774974787 0.8445681386767456 0.0
6.774648765429715 0.8431072072315275 0.0
2.6275781880879228 0.8435612037118398 0.0
7.372329490320985 0.8433206487873849 0.0
4.9218439058524215 0.18299862317645071 0.0
5.6772850956289025 0.18300156142283847 0.0
0.16562330084402238 0.15672085973412134 0.0
9.834376685950556 0.15672085167547067 0.0
9.1366079619788 0.18236518976463273 0.0
0.8633917210528939 0.18236550658603726 0.0
9.487016363440192 0.6658098851616314 0.0
0.5129835316416416 0.6658099585018458 0.0
1.480109633503251 0.1578259851555471 0.0
8.519887644833078 0.1578218602171161 0.0
7.925355524543857 0.15999563774061384 0.0
2.074626628350749 0.16003483396414014 0.0
6.138183785500251 0.14542905723363708 0.0
4.4611348981556125 0.14544190392153233 0.0
[...]
POINT_DATA 386
VECTORS vector double
1.0 0.0 0.0
0.0 0.0 0.0
0.0 0.0 0.0
0.0 0.0 0.0
0.0 0.0 0.0
1.0 0.0 0.0
0.0 0.0 0.0
0.0 0.0 0.0
0.0 0.0 0.0
0.0 0.0 0.0
0.0 0.0 0.0
0.0 0.0 0.0
0.0 0.0 0.0
0.0 0.0 0.0
0.0 0.0 0.0
0.0 0.0 0.0
0.0 0.0 0.0
0.0 0.0 0.0
0.0 0.0 0.0
0.0 0.0 0.0
0.0 0.0 0.0
0.0 0.0 0.0
0.0 0.0 0.0
0.0 0.0 0.0
0.0 0.0 0.0
0.0 0.0 0.0
0.0 0.0 0.0
0.0 0.0 0.0
0.0 0.0 0.0
0.0 0.0 0.0
0.0 0.0 0.0
0.0 0.0 0.0
0.0 0.0 0.0
0.0 0.0 0.0
0.0 0.0 0.0
0.0 0.0 0.0
0.0 0.0 0.0
0.0 0.0 0.0
0.0 0.0 0.0
0.0 0.0 0.0
0.0 0.0 0.0
0.0 0.0 0.0
0.0 0.0 0.0
0.0 0.0 0.0
0.0 0.0 0.0
0.0 0.0 0.0
0.0 0.0 0.0
0.0 0.0 0.0
0.0 0.0 0.0
0.0 0.0 0.0
0.0 0.0 0.0
0.0 0.0 0.0
0.0 0.0 0.0
0.0 0.0 0.0
0.972382032249 0.0901604691501 0.0
1.37545528073 -0.00173100584061 0.0
1.3693357364 -0.0077851442094 0.0
0.977172548432 -0.0877330197827 0.0
0.0 0.0 0.0
0.0 0.0 0.0
0.0 0.0 0.0
0.0 0.0 0.0
0.0 0.0 0.0
0.0 0.0 0.0
0.0 0.0 0.0
0.0 0.0 0.0
0.0 0.0 0.0
0.0 0.0 0.0
0.0 0.0 0.0
0.0 0.0 0.0
0.0 0.0 0.0
0.0 0.0 0.0
0.0 0.0 0.0
0.0 0.0 0.0
0.0 0.0 0.0
0.0 0.0 0.0
0.0 0.0 0.0
0.0 0.0 0.0
0.0 0.0 0.0
0.0 0.0 0.0
0.0 0.0 0.0
0.0 0.0 0.0
0.0 0.0 0.0
0.0 0.0 0.0
0.0 0.0 0.0
0.0 0.0 0.0
0.0 0.0 0.0
0.0 0.0 0.0
0.0 0.0 0.0
0.0 0.0 0.0
0.0 0.0 0.0
0.0 0.0 0.0
0.0 0.0 0.0
0.0 0.0 0.0
0.0 0.0 0.0
0.0 0.0 0.0
0.0 0.0 0.0
0.0 0.0 0.0
0.0 0.0 0.0
0.0 0.0 0.0
0.0 0.0 0.0
0.0 0.0 0.0
0.0 0.0 0.0
0.0 0.0 0.0
0.0 0.0 0.0
0.0 0.0 0.0
0.0 0.0 0.0
1.0 0.0 0.0
1.0 0.0 0.0
1.0 0.0 0.0
1.0 0.0 0.0
1.23748142753 -0.0449694938942 0.0
1.40647750868 -0.0154597511369 0.0
1.40547943519 -0.0102464787021 0.0
1.34709943143 -0.00556120647603 0.0
1.40514224958 -0.00575181712808 0.0
1.38696101962 0.0110841733481 0.0
1.38004449437 0.00542639751956 0.0
1.38633521617 -0.00267662074469 0.0
1.38134451987 0.00108099069217 0.0
1.3816828704 0.00100020620024 0.0
1.38226045119 -0.00187024846291 0.0
1.37524510779 -0.00501106008902 0.0
1.38588090501 -0.00383666773462 0.0
1.37685578175 -0.000153146642906 0.0
1.39892225425 0.00630198088041 0.0
1.41680364585 -0.00207815393725 0.0
1.26383428055 0.000990659189493 0.0
1.1427657285 -0.121524865491 0.0
1.25698561938 0.00988956608922 0.0
1.30988118606 0.000524911537492 0.0
1.24413611432 -0.00384260729206 0.0
1.31750014543 0.00357288875236 0.0
1.30222598476 0.00194282878942 0.0
1.30074994397 -0.00339543609051 0.0
1.32553917374 0.0141059099684 0.0
1.32378615562 0.00633939166992 0.0
1.30584500607 0.000204251892447 0.0
1.32055366445 -0.00947414712998 0.0
1.26965484167 -0.0281938891711 0.0
1.32591254593 0.02575176567 0.0
1.30022939227 -0.008375667609 0.0
1.32475825459 -0.00635985078004 0.0
1.28015853489 0.00747447102527 0.0
1.30170804784 0.0167489382159 0.0
1.32450589732 -0.0168218267287 0.0
1.28680129649 0.00135653915857 0.0
1.26343099301 0.00373197990909 0.0
1.28303856848 0.00259454497789 0.0
1.27083988271 0.0170573576043 0.0
1.29733177232 -0.00924148447903 0.0
1.25680349656 0.00657902480325 0.0
1.26581298937 0.000140727043748 0.0
1.25178292827 0.0082851177588 0.0
1.26652575157 0.0017832888262 0.0
1.11141000437 0.0871535871387 0.0
1.26422036571 -0.0107922991947 0.0
1.21081904911 -0.000564113145733 0.0
1.21513407222 -0.00384583707304 0.0
1.24561194162 0.0239662996919 0.0
1.25032504053 -0.0171386379389 0.0
1.19844296581 -0.0726738197659 0.0
1.20148370709 -0.010615777856 0.0
1.20455956587 -0.00931377775564 0.0
1.16273494402 -0.0102064557013 0.0
1.15106358913 0.000537954435694 0.0
1.19757587315 0.0154130687386 0.0
1.15599886253 0.0297076498639 0.0
1.11631484859 -0.00941324615134 0.0
1.20979646762 -0.00636892449705 0.0
1.17265736966 0.00463391379392 0.0
1.14667821447 0.00661676481704 0.0
1.18364888678 0.00306586694129 0.0
1.15683513695 0.00847626899058 0.0
1.17975497455 -0.0036931241134 0.0
1.16015434503 0.0102301013852 0.0
1.17400949334 -0.00688958234652 0.0
1.13973220948 0.00741387524207 0.0
1.16624982697 -0.00775444993537 0.0
0.995539279807 -0.00058625550174 0.0
1.02559849605 -0.000710650640709 0.0
0.999995608072 0.000792159363628 0.0
1.02076807936 -0.00250462217114 0.0
1.00946799861 -0.000282317778082 0.0
1.03934399618 -0.00641511863954 0.0
1.02333555568 -0.00290454302794 0.0
0.945817541128 0.00124720134451 0.0
0.926610218885 0.00391396589111 0.0
0.927385567266 -0.00358129483173 0.0
1.14160282256 -0.00385018212751 0.0
0.974926319686 -0.0229052754647 0.0
0.981266090107 0.0225718529533 0.0
1.17290504971 0.00356565169165 0.0
0.99200458243 -0.0103824373916 0.0
1.41917118674 -0.00831295914919 0.0
0.874291928763 -0.000438691950545 0.0
1.04947378227 0.0570801147097 0.0
1.42519071647 -0.0085451276696 0.0
1.11940671854 -0.0247799143268 0.0
0.863229328511 -0.00751623213746 0.0
1.08502983382 -0.0808918887461 0.0
0.839092614931 -0.0537189129508 0.0
1.19123157311 -0.176653191436 0.0
0.923039477824 -0.00755097975141 0.0
0.947462395176 0.0113771526814 0.0
0.936684151575 -0.0155344219503 0.0
1.02587834325 0.0274331404981 0.0
0.931562141611 -0.00733842981788 0.0
0.943511506824 0.00891966916294 0.0
0.924684492833 -0.00783322664816 0.0
0.938157035602 0.00851965139572 0.0
0.965877963299 0.0196142555337 0.0
0.914914743454 -0.0107432140727 0.0
0.923047729231 0.00889183138863 0.0
0.930325539957 -0.012177614471 0.0
0.896369160835 0.00632477443023 0.0
0.924241120975 0.00561845680964 0.0
0.923908359296 -0.0255662323275 0.0
0.967868161116 -0.0236253880582 0.0
0.919350953764 -0.0161296839376 0.0
0.933362853655 0.00841374669121 0.0
0.896251686129 -0.00873016078601 0.0
1.37926433925 -0.0146039751879 0.0
1.39361060303 0.0165592948073 0.0
0.911936547691 -0.0108540176987 0.0
0.88079445775 0.0119715328407 0.0
1.4294778756 -0.0016814336935 0.0
1.42600288206 0.00825937800631 0.0
0.885809787186 0.00282114378218 0.0
0.908219286636 -0.000517020483387 0.0
0.895018389624 0.00318629225491 0.0
0.916980819696 -0.00554504140251 0.0
0.905751711147 0.00327956719432 0.0
0.947110532228 0.005183614833 0.0
0.919873595871 -0.00161903904731 0.0
1.4233299511 0.00602179340791 0.0
1.42629309093 0.000357787858554 0.0
1.41666075201 0.00492254538955 0.0
1.42462847648 -0.00231627391314 0.0
1.39207065639 0.000887595362181 0.0
1.42467649317 -0.00687243194476 0.0
1.41986379014 0.00574193299992 0.0
1.4243232159 -0.00894972185781 0.0
1.39277338625 0.0129993430291 0.0
1.34380839087 -0.0104645483055 0.0
1.3092152053 -0.0233952289644 0.0
1.43094985921 -0.012854729532 0.0
1.42457795469 -0.020422298877 0.0
1.41452445266 0.000335420240798 0.0
1.41463497962 0.0148381688951 0.0
1.43735411603 -0.00918565836121 0.0
1.41719067974 0.0186404018483 0.0
1.4209208284 -0.0068374646457 0.0
1.41208322697 0.0084658281471 0.0
1.38787989181 -0.000159101217026 0.0
1.41259962525 0.0123123992545 0.0
1.40352684306 -0.00569065483676 0.0
1.41379019362 0.0157262332119 0.0
1.40853857686 -0.00605095194237 0.0
0.90925862292 -0.00780896397632 0.0
0.899484017557 0.00158164724426 0.0
0.939233025131 0.00580486742603 0.0
0.901182460558 0.022268685599 0.0
0.937854665611 -0.0211500864649 0.0
0.889028219094 0.00212179775879 0.0
0.913265258312 -0.000406697235193 0.0
0.880909835934 0.00135774897085 0.0
0.910662688657 0.00255207883965 0.0
0.90188039195 0.0471150803098 0.0
0.915535743061 -0.0510377377154 0.0
1.10796936869 0.143991058219 0.0
0.865761133689 -0.0198091579963 0.0
0.922675585397 0.00332496717049 0.0
1.02602742862 0.0049919650734 0.0
1.3137099675 -0.0225544553995 0.0
1.2310122296 -0.110431023395 0.0
0.890248547652 0.00598751243309 0.0
0.824820739711 0.00590140964617 0.0
0.82335683842 0.00909536271815 0.0
0.852726083895 -0.00358684146472 0.0
0.795670564438 0.022542969073 0.0
0.785488607919 -0.0187247888991 0.0
0.8349250501 0.00964784141422 0.0
0.847858047691 -0.00702562337825 0.0
0.836370628639 0.00882751157199 0.0
0.844205157668 -0.00739829913334 0.0
1.34462859309 -0.00977246625924 0.0
1.3308555785 0.0149098493662 0.0
0.835772486082 -0.0061090575541 0.0
1.34148193624 -0.000352629262465 0.0
1.36210478584 0.0145418373368 0.0
0.888641743487 -0.00445627543944 0.0
0.980694198195 0.132312087753 0.0
1.37059001303 0.00279418253968 0.0
1.35098722778 0.00515714601427 0.0
0.949124742117 -0.0198333425465 0.0
0.896664155885 -0.00136672667875 0.0
1.36640717621 -0.00332705814975 0.0
1.35143976052 0.00869170869649 0.0
1.33766525653 0.00915314121597 0.0
1.36027368678 -0.00597716509975 0.0
0.937364276343 0.0245551803203 0.0
1.35050161394 -0.00956145169938 0.0
1.27740530312 0.0197897192129 0.0
1.28984585646 -0.0211222199444 0.0
1.3111709852 -0.000906198217704 0.0
1.26395120644 -0.00940144173257 0.0
1.29501034345 0.00911911072838 0.0
1.28571652117 -0.0010802287072 0.0
1.2890380594 -5.88066578998e-05 0.0
1.28941408436 -0.00731844058492 0.0
1.26710552057 0.0112283941248 0.0
1.28643886481 -0.00340157463439 0.0
1.27671641652 0.00281084217172 0.0
1.27128422267 0.00549737836327 0.0
1.28398886581 -0.0005812768639 0.0
1.30954616198 -0.0188799835511 0.0
1.26002601217 -0.0142294123606 0.0
1.29437601266 -0.00180023314403 0.0
1.28437202151 0.00456728359844 0.0
1.31490402272 -1.78340695042e-05 0.0
1.27747514815 0.0151394264657 0.0
1.31629727398 -0.0137864402157 0.0
1.25727273146 -0.061550676433 0.0
1.31148582475 -0.00543676047154 0.0
1.27904022491 -0.00166759120525 0.0
1.29237388692 -0.00749325994869 0.0
1.27282113726 0.000872870252997 0.0
1.28246406688 0.000560843115702 0.0
1.20626744968 0.041276178869 0.0
1.32557906106 -0.00327014064932 0.0
1.26750012046 0.00307240051825 0.0
1.28493138727 -0.00026893078357 0.0
1.28237121571 -0.0130230178461 0.0
1.28505951829 0.00591274929942 0.0
0.98580175359 -0.127260436066 0.0
1.30196985071 -0.0131016839758 0.0
1.30922596404 0.0218620490965 0.0
1.41634715461 -0.00307050197238 0.0
1.40956450896 0.00524953918205 0.0
1.28322804288 0.000990136707053 0.0
0.994643776317 0.0806907310635 0.0
0.744457962192 -0.00934742803803 0.0
1.07895004433 0.123604499026 0.0
1.03508095842 -0.0987143542972 0.0
1.30261706482 -0.00703705533459 0.0
1.32132632354 -0.0135786254272 0.0
1.24823437615 0.0181614832247 0.0
1.38495356062 -0.0191394554902 0.0
1.3680862073 0.0317587791693 0.0
0.851539484884 0.0732358349724 0.0
0.751946080784 0.0285991834229 0.0
1.17688807634 -0.15568222912 0.0
0.835125920928 -0.0683785112464 0.0
1.3815031932 -0.0147278551071 0.0
1.39364300984 0.027664806525 0.0
0.65167584912 0.0227644229503 0.0
0.68528141965 0.0103611508383 0.0
0.657957138693 -0.0228411966021 0.0
1.40358026783 0.0195844149912 0.0
1.38866403147 -0.0117156143873 0.0
1.36331831769 -0.0057869088905 0.0
1.34254381663 0.00851190501186 0.0
1.39965094016 0.01531982647 0.0
1.38642761876 -0.00872855516611 0.0
1.3949229884 0.0125410239973 0.0
1.36949086701 -0.0018543767308 0.0
0.690639780582 0.00948755177858 0.0
0.684171344982 -0.009623237214 0.0
1.38973898178 0.00437049158532 0.0
0.692842918002 0.00997613981089 0.0
0.680173257714 -0.0080496233301 0.0
0.703709646935 0.0153232836327 0.0
0.67011663932 -0.00894151403397 0.0
0.833426279663 -0.0265391956688 0.0
0.706635177014 -0.0232971512221 0.0
0.738456921432 -0.00256059487422 0.0
0.724947994248 -0.00862394229653 0.0
0.774296136632 0.0378990930669 0.0
0.689579361042 -0.0226189687229 0.0
0.74352011125 0.00253253089238 0.0
0.710092017772 -0.00388896894886 0.0
0.615439491147 0.0289933886513 0.0
1.23285544586 -0.0898447565705 0.0
0.799531759136 -0.000736208620785 0.0
0.6577257716 0.0235419117481 0.0

SCALARS scalar1 double
LOOKUP_TABLE default
3.48539930464
6.05283393283
6.35756962093
6.40763132836
-5.94298182867
-2.4030121465
11.4143805977
10.1216921002
7.65827712951
6.79231846351
6.14291847022
6.14074403872
6.11590259052
5.79874548969
6.25660595049
6.03374147303
6.03310730655
6.15455483828
6.32701341926
6.24897264681
6.24905955705
6.43855157928
6.31710771555
6.29409045924
6.45384030513
6.30076635342
6.17903989426
6.53862440301
6.77233156605
6.61790080987
8.28914826582
5.01584247211
8.36862960952
6.76554216442
6.99711794082
6.83172183178
6.3723456895
6.40946928853
6.56664486474
6.37945054926
6.39561530517
6.54924756582
6.37824104175
6.26756884903
6.29943659608
6.56594784689
6.04609478974
6.29571586572
6.1963565302
5.86423598345
5.97162896243
5.89599951576
6.43253640241
6.15914848509
3.15643748137
0.872558130822
-0.820663146696
-3.0282279811
-6.35380323472
-6.44418498306
-5.97673859975
-5.58102210378
-5.74556590006
-5.56427181156
-6.09109944753
-5.71832705624
-5.53357958721
-5.8663739241
-5.65777530858
-5.47609547565
-5.84226142147
-5.65864118003
-5.47571550143
-5.87905282973
-5.78376207239
-5.50185356581
-5.88916029328
-7.22622406065
-4.9407703293
-5.94148179933
-5.78791163224
-5.74799712212
-5.82046535678
-4.8176690525
-7.03820000716
-5.78976906733
-5.46026667339
-5.75713622515
-5.85626264152
-5.48328991073
-5.68350291635
-5.8632433592
-5.50629494485
-5.71696072181
-5.91580088311
-5.59523234513
-5.84553175203
-6.12097970174
-5.85437044529
-6.17647572656
-6.81985885762
-6.28674432376
-6.5902876858
-6.70991797953
-7.48889806606
-9.59705509316
-10.5888975168
2.5314931613
-0.0886940730301
-0.00310974648937
-3.44598387057
-0.204669201004
0.275259648094
0.351243285286
0.426134300197
0.33358649942
0.53805477085
0.679517731889
0.512545136561
0.656762953537
0.537844821352
0.599366156054
0.42483842367
0.513656050373
-0.0178666424045
-0.0208546015624
-0.101108000289
1.91009082849
-1.12487092211
-1.5712977043
-1.28008364253
-1.3699482629
-1.24705698811
-1.20426917115
-1.3430260913
-1.24205286486
-1.24314483511
-1.2520836958
1.47229250087
1.04220378907
-1.03679837312
-1.38371946249
1.47625437953
1.53476678212
-0.308745432936
-1.27588122382
1.55729191737
1.66248546921
1.18553443682
1.65894240721
1.55613126361
1.7172123021
1.59706108948
1.75908604592
1.63761029903
0.740997147322
-1.75681626752
-1.59333442418
-1.69645597876
1.22431333858
1.33492522129
1.21084594473
2.28589938235
2.28386354418
2.16648960355
-2.285089432
-1.87674552232
-1.79180036629
-2.60606415946
2.27961875504
2.32661549303
-2.28281209702
-2.21478036556
-2.18822284964
-2.20295740817
-2.1536915163
-2.17349656085
-2.22153287694
-2.17755697198
3.20751758164
3.16705188087
3.23653845953
3.1807136559
3.21232570068
3.04531992548
3.13921153736
3.6360112914
3.71879731872
-3.17013012711
-2.33078185055
-2.64850928036
-2.43562596987
1.51050526935
-0.0883367325372
-0.010905339186
-3.65190529666
-2.95657385069
0.045441469906
-0.199920863155
3.74060770173
3.09272130437
3.74630111916
-0.748879972917
-3.23692632215
-3.34917094927
-3.26498025432
-2.92743855872
-3.19872985513
-3.27859908944
-3.24260807534
-3.25103750831
-3.38102607239
-3.31376058812
-3.31674933072
3.57152913351
3.4899755822
3.55744867363
3.39007325173
3.3038896589
3.51464112755
3.6062150785
3.50440658959
-0.176684761914
-0.22489904767
3.65136258605
3.62583807312
0.143667046986
0.302101325905
3.72445481488
3.72945308151
3.72376801322
3.66912841478
3.67814738621
3.6516862505
3.75012207076
0.199762171267
0.308151802282
0.167774866816
0.259495585667
0.000117526537933
0.198866970547
0.0276454748216
0.0942112663396
0.315820221443
0.104176533614
-0.0376858340553
0.0802037813535
0.0456758069818
0.165416021602
0.266289085258
0.0526592476152
0.318929425434
0.116674540414
0.286122116953
0.0902955601415
0.339710566506
0.23317112149
0.376617460785
0.225345379674
3.66063837696
3.72195444063
3.55048878909
3.6019738558
3.60952638539
3.74954385935
3.68067140709
3.73473184013
3.70445340131
-3.20589610832
-3.06956050305
0.0167811971203
-3.83388651488
-3.32663526018
-2.95056363855
1.52695252867
-0.602883634519
-3.79131599979
-3.73354071616
-3.67031147005
-3.78416483102
-3.90534746481
-3.88258822866
-3.60790773332
-3.68762175854
-3.63865374747
-3.63942752119
-1.07334835665
-0.34260049858
-3.65734817328
-1.11019331536
-0.814169385866
-3.27800817091
3.60767877865
-0.887249013702
-1.01239888066
3.64985050528
-3.24802246986
-0.894291644004
-0.950714176075
-0.941138640374
-0.913242647802
3.71541136617
-0.97874934384
-1.20741643321
-1.32230183253
1.35754974973
1.46338464375
1.41786262125
1.58707624223
1.15579570559
1.6932594401
1.6801503558
1.65813000762
1.65271581007
1.70634196063
1.73691765509
1.44532440431
1.10560628031
1.68988910577
1.57680925605
1.37680816389
1.43526313845
1.42670407953
0.747633971287
1.32837651956
1.78830905395
1.2815927636
1.83685873425
1.58501059399
0.245011580772
-1.2228218936
1.8582671804
1.59575580153
-1.05529612576
-1.16617421716
3.58914743351
1.12512770551
1.26713230467
0.219908505527
0.219177344037
-1.644197114
1.13757572758
-4.36197468635
-3.48069720555
-1.59970262369
1.75235240689
-1.15581046473
-0.037179649321
-0.793840475257
-0.274067300388
-3.77975286453
4.34377913494
3.71676758916
-3.91386995353
-0.790905965889
-0.563536912703
-4.16437688415
-4.06477916462
-4.18872885348
-0.574731631928
-0.6776980509
-1.02345579493
-0.892939274982
-0.591634060008
-0.631056015136
-0.623663939263
-0.698064033822
-4.07607877608
-4.07715238888
-0.738643215927
-4.14371418758
-4.071499311
-4.26788765355
-4.14187468818
4.40874883948
4.33474774479
4.40313214352
4.26926461718
-4.27394195633
-4.1863191227
4.49258070555
4.35363601661
4.87937650916
1.11956478552
-4.31245698045
-4.2585520973

SCALARS scalar2 double
LOOKUP_TABLE default
3.48539930464
6.05283393283
6.35756962093
6.40763132836
-5.94298182867
-2.4030121465
11.4143805977
10.1216921002
7.65827712951
6.79231846351
6.14291847022
6.14074403872
6.11590259052
5.79874548969
6.25660595049
6.03374147303
6.03310730655
6.15455483828
6.32701341926
6.24897264681
6.24905955705
6.43855157928
6.31710771555
6.29409045924
6.45384030513
6.30076635342
6.17903989426
6.53862440301
6.77233156605
6.61790080987
8.28914826582
5.01584247211
8.36862960952
6.76554216442
6.99711794082
6.83172183178
6.3723456895
6.40946928853
6.56664486474
6.37945054926
6.39561530517
6.54924756582
6.37824104175
6.26756884903
6.29943659608
6.56594784689
6.04609478974
6.29571586572
6.1963565302
5.86423598345
5.97162896243
5.89599951576
6.43253640241
6.15914848509
3.15643748137
0.872558130822
-0.820663146696
-3.0282279811
-6.35380323472
-6.44418498306
-5.97673859975
-5.58102210378
-5.74556590006
-5.56427181156
-6.09109944753
-5.71832705624
-5.53357958721
-5.8663739241
-5.65777530858
-5.47609547565
-5.84226142147
-5.65864118003
-5.47571550143
-5.87905282973
-5.78376207239
-5.50185356581
-5.88916029328
-7.22622406065
-4.9407703293
-5.94148179933
-5.78791163224
-5.74799712212
-5.82046535678
-4.8176690525
-7.03820000716
-5.78976906733
-5.46026667339
-5.75713622515
-5.85626264152
-5.48328991073
-5.68350291635
-5.8632433592
-5.50629494485
-5.71696072181
-5.91580088311
-5.59523234513
-5.84553175203
-6.12097970174
-5.85437044529
-6.17647572656
-6.81985885762
-6.28674432376
-6.5902876858
-6.70991797953
-7.48889806606
-9.59705509316
-10.5888975168
2.5314931613
-0.0886940730301
-0.00310974648937
-3.44598387057
-0.204669201004
0.275259648094
0.351243285286
0.426134300197
0.33358649942
0.53805477085
0.679517731889
0.512545136561
0.656762953537
0.537844821352
0.599366156054
0.42483842367
0.513656050373
-0.0178666424045
-0.0208546015624
-0.101108000289
1.91009082849
-1.12487092211
-1.5712977043
-1.28008364253
-1.3699482629
-1.24705698811
-1.20426917115
-1.3430260913
-1.24205286486
-1.24314483511
-1.2520836958
1.47229250087
1.04220378907
-1.03679837312
-1.38371946249
1.47625437953
1.53476678212
-0.308745432936
-1.27588122382
1.55729191737
1.66248546921
1.18553443682
1.65894240721
1.55613126361
1.7172123021
1.59706108948
1.75908604592
1.63761029903
0.740997147322
-1.75681626752
-1.59333442418
-1.69645597876
1.22431333858
1.33492522129
1.21084594473
2.28589938235
2.28386354418
2.16648960355
-2.285089432
-1.87674552232
-1.79180036629
-2.60606415946
2.27961875504
2.32661549303
-2.28281209702
-2.21478036556
-2.18822284964
-2.20295740817
-2.1536915163
-2.17349656085
-2.22153287694
-2.17755697198
3.20751758164
3.16705188087
3.23653845953
3.1807136559
3.21232570068
3.04531992548
3.13921153736
3.6360112914
3.71879731872
-3.17013012711
-2.33078185055
-2.64850928036
-2.43562596987
1.51050526935
-0.0883367325372
-0.010905339186
-3.65190529666
-2.95657385069
0.045441469906
-0.199920863155
3.74060770173
3.09272130437
3.74630111916
-0.748879972917
-3.23692632215
-3.34917094927
-3.26498025432
-2.92743855872
-3.19872985513
-3.27859908944
-3.24260807534
-3.25103750831
-3.38102607239