# vtk DataFile Version 2.0
2D Simulation Python
ASCII
DATASET UNSTRUCTURED_GRID
FIELD FieldData 1
NODES 1 2 int
386 659

POINTS 386 double
0.0 1.0 0.0
1.725 1.0 0.0
8.275 1.0 0.0
10.0 1.0 0.0
10.0 0.0 0.0
0.0 0.0 0.0
0.1916666666663293 1.0 0.0
0.3833333333324708 1.0 0.0
0.574999999998553 1.0 0.0
0.7666666666645966 1.0 0.0
0.9583333333312576 1.0 0.0
1.149999999998384 1.0 0.0
1.341666666665662 1.0 0.0
1.533333333332819 1.0 0.0
1.92348484848444 1.0 0.0
2.121969696968978 1.0 0.0
2.320454545453434 1.0 0.0
2.518939393937826 1.0 0.0
2.717424242422235 1.0 0.0
2.915909090906411 1.0 0.0
3.1143939393908 1.0 0.0
3.312878787875129 1.0 0.0
3.511363636359531 1.0 0.0
3.709848484843827 1.0 0.0
3.90833333332816 1.0 0.0
4.106818181812215 1.0 0.0
4.305303030296804 1.0 0.0
4.503787878781365 1.0 0.0
4.702272727265711 1.0 0.0
4.900757575750005 1.0 0.0
5.099242424235156 1.0 0.0
5.297727272720327 1.0 0.0
5.496212121205663 1.0 0.0
5.694696969690998 1.0 0.0
5.89318181817668 1.0 0.0
6.09166666666213 1.0 0.0
6.290151515147423 1.0 0.0
6.488636363633031 1.0 0.0
6.687121212118713 1.0 0.0
6.885606060604342 1.0 0.0
7.084090909089381 1.0 0.0
7.282575757574369 1.0 0.0
7.481060606059355 1.0 0.0
7.679545454544343 1.0 0.0
7.878030303029329 1.0 0.0
8.076515151514705 1.0 0.0
8.46666666666447 1.0 0.0
8.658333333329285 1.0 0.0
8.84999999999549 1.0 0.0
9.041666666661694 1.0 0.0
9.233333333327899 1.0 0.0
9.42499999999549 1.0 0.0
9.616666666663775 1.0 0.0
9.808333333331985 1.0 0.0
10.0 0.7999999999999998 0.0
10.0 0.6000000000013869 0.0
10.0 0.4000000000016644 0.0
10.0 0.2000000000008322 0.0
9.799999999999999 0.0 0.0
9.6 0.0 0.0
9.399999999999999 0.0 0.0
9.2 0.0 0.0
8.999999999999998 0.0 0.0
8.799999999999997 0.0 0.0
8.599999999999998 0.0 0.0
8.399999999999997 0.0 0.0
8.199999999999998 0.0 0.0
7.999999999999997 0.0 0.0
7.799999999999997 0.0 0.0
7.599999999999998 0.0 0.0
7.399999999999997 0.0 0.0
7.199999999999998 0.0 0.0
6.999999999999997 0.0 0.0
6.799999999999997 0.0 0.0
6.599999999999998 0.0 0.0
6.399999999999997 0.0 0.0
6.199999999999998 0.0 0.0
5.999999999999997 0.0 0.0
5.799999999999998 0.0 0.0
5.599999999999998 0.0 0.0
5.399999999999999 0.0 0.0
5.199999999999998 0.0 0.0
4.999999999999999 0.0 0.0
4.799999999999999 0.0 0.0
4.599999999999999 0.0 0.0
4.399999999999999 0.0 0.0
4.199999999999999 0.0 0.0
3.999999999999999 0.0 0.0
3.799999999999999 0.0 0.0
3.599999999999999 0.0 0.0
3.399999999999998 0.0 0.0
3.199999999999998 0.0 0.0
2.999999999999999 0.0 0.0
2.799999999999998 0.0 0.0
2.599999999999998 0.0 0.0
2.399999999999999 0.0 0.0
2.199999999999999 0.0 0.0
1.999999999999998 0.0 0.0
1.799999999999999 0.0 0.0
1.6 0.0 0.0
1.4 0.0 0.0
1.199999999999999 0.0 0.0
0.9999999999999982 0.0 0.0
0.7999999999999989 0.0 0.0
0.6000000000000014 0.0 0.0
0.3999999999999986 0.0 0.0
0.1999999999999993 0.0 0.0
0.0 0.1999999999995579 0.0
0.0 0.3999999999989749 0.0
0.0 0.5999999999989468 0.0
0.0 0.7999999999994734 0.0
0.6628500013231412 0.53953596100584 0.0
9.337149998673484 0.539535961005563 0.0
8.746291501696788 0.5554837760469881 0.0
1.2537084982997257 0.555483776046986 0.0
8.171059125451047 0.5552196474312824 0.0
1.8289408719987896 0.5552196470664696 0.0
2.421450940313616 0.5733553682142399 0.0
7.578544161380208 0.5733559460986837 0.0
3.0192472831710826 0.5740423724961674 0.0
6.980449585649829 0.5740131901152369 0.0
3.615808161770378 0.5739880980386363 0.0
6.3794829232134225 0.5712668932909114 0.0
4.216573131695614 0.5708451004433677 0.0
5.801063703726034 0.5171971052903152 0.0
4.794981088194981 0.5160834091048616 0.0
5.298020799794109 0.5126878829411471 0.0
9.674120290358726 0.6973056040856106 0.0
0.32587970963895063 0.6973056040854158 0.0
4.521244957580922 0.3252575657890661 0.0
3.906216511158977 0.3503429048833582 0.0
6.075952379597787 0.32584993461221673 0.0
3.3076975448034456 0.35124367517474236 0.0
6.69098574218421 0.35041468887559674 0.0
7.887155842830986 0.3484470427217324 0.0
2.112843631575576 0.3484469695617785 0.0
2.7102077628845773 0.35117166420935614 0.0
7.289721687622697 0.3511718367605765 0.0
9.037261619947241 0.6647074624390054 0.0
0.9627383800480465 0.6647074624391954 0.0
1.525436968594543 0.34690749977422 0.0
8.474563031403745 0.3469074997743349 0.0
8.464643305761154 0.6678446683972443 0.0
1.5353566942362709 0.6678446683970658 0.0
0.9792581989383061 0.35659192624981184 0.0
9.020741801059067 0.35659192624961367 0.0
4.517575841069773 0.6762557471789841 0.0
3.9098154879458646 0.6794594530989208 0.0
6.078081767545212 0.6771647771034217 0.0
2.111405222762188 0.6736121101190806 0.0
7.888594711561699 0.673612119512778 0.0
3.312978311506239 0.6797609080760586 0.0
6.686044555319043 0.6795784059076367 0.0
2.716736516321477 0.679758880036701 0.0
7.2832334516146355 0.6797612998508609 0.0
0.33609102309986916 0.30113898429319824 0.0
9.66390897689907 0.301138984293476 0.0
5.5832996575167115 0.3145852573992599 0.0
5.013959987364985 0.3140268374203456 0.0
5.5112449799334575 0.687389214137729 0.0
5.084233952263001 0.6867322609059822 0.0
0.665131657036554 0.730463813261239 0.0
9.33486834295888 0.7304638132609855 0.0
8.751210182575663 0.7316264588361983 0.0
1.2487898174200476 0.7316264588361816 0.0
8.67486155471645 0.26552371647188494 0.0
1.32513844528184 0.2655237164718825 0.0
0.683500013628104 0.2324425465471518 0.0
9.316499986370408 0.23244254654693214 0.0
8.17576610458645 0.7321219050717985 0.0
1.8242338954121002 0.7321219050715706 0.0
8.089206627117843 0.2634635102173355 0.0
1.9107933293351809 0.2634635039887563 0.0
7.493459569926495 0.2659243672940582 0.0
2.5065238629497455 0.2659231053241877 0.0
6.8950227770632395 0.26598930418892597 0.0
3.104481960627253 0.266159386029828 0.0
6.2935442344656245 0.2575977755015406 0.0
3.7027574013282143 0.2659971116183023 0.0
2.4174838741315288 0.7975524663958201 0.0
7.58251487744278 0.7975526382156158 0.0
3.0152888294279725 0.7980433444756494 0.0
6.984579126522715 0.7980453782852832 0.0
3.611164694353314 0.7980147413760325 0.0
6.386292987050864 0.797682652940964 0.0
4.2093225077661724 0.7973863318394384 0.0
5.796747921960381 0.8376439887386212 0.0
4.798654602028028 0.8369461446424312 0.0
5.299192275769282 0.1818025658233921 0.0
4.3041169783869915 0.2573205030424944 0.0
4.73785688285914 0.23000051206765953 0.0
5.860044608892601 0.23052761803848554 0.0
5.2977391886183165 0.711220702124238 0.0
0.1974053972317854 0.5000750996175981 0.0
9.80259460276718 0.500075099618621 0.0
9.48449792087016 0.16005331268502168 0.0
0.5155020791290185 0.16005331268509027 0.0
9.564502481708194 0.5077903463423736 0.0
0.4354975182895517 0.5077903463423242 0.0
9.506645713531508 0.8334744151370793 0.0
0.4933542864643878 0.8334744151371828 0.0
9.822122918926134 0.8262558707538464 0.0
0.17787708107243366 0.8262558707535935 0.0
7.696126709725396 0.18008819948588015 0.0
2.303870711552226 0.18008789314523282 0.0
8.87815653009869 0.18539011477340187 0.0
1.1218434698999635 0.1853901147734764 0.0
7.09752628203202 0.180600480938434 0.0
2.9023304349767436 0.18062006731764718 0.0
6.497763244762941 0.17849889971328314 0.0
3.5009703247307127 0.18062899783441191 0.0
1.7087389170383571 0.17893338461189606 0.0
8.291261081345459 0.1789333848430448 0.0
4.100628541844563 0.17841036193905202 0.0
8.580886556054413 0.8220906439473438 0.0
1.419113443942006 0.8220906439472662 0.0
8.924409906570467 0.8212619076575758 0.0
1.0755900934241376 0.8212619076576363 0.0
0.8429566496570551 0.8207429441993466 0.0
9.157043350337235 0.820742944199189 0.0
8.349736491383236 0.8220039649619252 0.0
1.6502635086148765 0.8220039649617832 0.0
5.595347553037771 0.49605269778537747 0.0
5.000807279580413 0.4952330654250847 0.0
7.793438774484144 0.8280303808000331 0.0
2.206561143884074 0.8280303689172416 0.0
7.785675956048162 0.5292702796258316 0.0
2.214323283726069 0.5292701745982021 0.0
2.8101580890505877 0.8301063527517082 0.0
7.189812478479017 0.8301087640240498 0.0
3.405966761668991 0.8300897512199042 0.0
6.593169945560435 0.8300179192373438 0.0
4.002439496482061 0.8298969135222716 0.0
5.989231933448029 0.8363035767461452 0.0
4.60622497967805 0.8356549757114525 0.0
7.186290367162964 0.5321438198615009 0.0
2.813606139147422 0.5321432895096505 0.0
6.587654188022141 0.5311628384170916 0.0
3.410222050701234 0.5321504823730967 0.0
5.986514023146305 0.5179542979399765 0.0
4.008606063917062 0.5309767777686645 0.0
4.6095837780919435 0.516923776185542 0.0
8.555987496597924 0.5266219624118463 0.0
1.4440125033994125 0.5266219624117187 0.0
1.061550357641157 0.521360225946141 0.0
0.873832354895733 0.5156092426793855 0.0
8.938449642355113 0.5213602259459899 0.0
9.126167645100566 0.5156092426791105 0.0
4.422103367147276 0.528438408702304 0.0
1.6294141326695184 0.5212918685961531 0.0
8.370585867328549 0.5212918685963719 0.0
2.0242802108545432 0.5287053309417358 0.0
7.975719719729315 0.5287053408704293 0.0
3.8169080257968173 0.5369911864362491 0.0
6.174010652631851 0.5291881063039591 0.0
3.2197423350138537 0.5373016468443786 0.0
6.779388435978494 0.5370629511815478 0.0
2.62289891829091 0.5371915899535091 0.0
7.377073466932931 0.5371936556653493 0.0
4.415583403317173 0.8304513751987652 0.0
3.815279997960551 0.8301791542846504 0.0
6.179931266033831 0.8309379186230157 0.0
1.9951984236585074 0.8237664616507214 0.0
8.004801573878224 0.8237664620030067 0.0
3.219310276168812 0.8302450560713118 0.0
6.780361686581337 0.830235607750445 0.0
2.623154494736801 0.830202719246336 0.0
7.376839069648358 0.8302034845567255 0.0
4.919331681966048 0.17826080966878882 0.0
5.679034259999563 0.17863695101556093 0.0
0.16702936873019764 0.15601422609894536 0.0
9.832970631269472 0.15601422609936805 0.0
9.135412403239721 0.17818060798843396 0.0
0.8645875967590028 0.17818060798859142 0.0
9.482653753641017 0.6611662244763078 0.0
0.5173462463555669 0.6611662244764808 0.0
1.4768645652531573 0.1511525464869814 0.0
8.523135434745988 0.15115254648701534 0.0
7.929613462626347 0.15082327737763962 0.0
2.070386292262398 0.15082324318360033 0.0
6.142572792230569 0.1390695533920398 0.0
4.456087617026319 0.13886414873074504 0.0
[...]
POINT_DATA 386
VECTORS vector double
1.0 0.0 0.0
0.0 0.0 0.0
0.0 0.0 0.0
0.0 0.0 0.0
0.0 0.0 0.0
1.0 0.0 0.0
0.0 0.0 0.0
0.0 0.0 0.0
0.0 0.0 0.0
0.0 0.0 0.0
0.0 0.0 0.0
0.0 0.0 0.0
0.0 0.0 0.0
0.0 0.0 0.0
0.0 0.0 0.0
0.0 0.0 0.0
0.0 0.0 0.0
0.0 0.0 0.0
0.0 0.0 0.0
0.0 0.0 0.0
0.0 0.0 0.0
0.0 0.0 0.0
0.0 0.0 0.0
0.0 0.0 0.0
0.0 0.0 0.0
0.0 0.0 0.0
0.0 0.0 0.0
0.0 0.0 0.0
0.0 0.0 0.0
0.0 0.0 0.0
0.0 0.0 0.0
0.0 0.0 0.0
0.0 0.0 0.0
0.0 0.0 0.0
0.0 0.0 0.0
0.0 0.0 0.0
0.0 0.0 0.0
0.0 0.0 0.0
0.0 0.0 0.0
0.0 0.0 0.0
0.0 0.0 0.0
0.0 0.0 0.0
0.0 0.0 0.0
0.0 0.0 0.0
0.0 0.0 0.0
0.0 0.0 0.0
0.0 0.0 0.0
0.0 0.0 0.0
0.0 0.0 0.0
0.0 0.0 0.0
0.0 0.0 0.0
0.0 0.0 0.0
0.0 0.0 0.0
0.0 0.0 0.0
1.06924918377 0.0702136707941 0.0
1.12817619161 -0.0163661355031 0.0
1.10722384801 0.00190212433546 0.0
1.10515252686 -0.0674610331038 0.0
0.0 0.0 0.0
0.0 0.0 0.0
0.0 0.0 0.0
0.0 0.0 0.0
0.0 0.0 0.0
0.0 0.0 0.0
0.0 0.0 0.0
0.0 0.0 0.0
0.0 0.0 0.0
0.0 0.0 0.0
0.0 0.0 0.0
0.0 0.0 0.0
0.0 0.0 0.0
0.0 0.0 0.0
0.0 0.0 0.0
0.0 0.0 0.0
0.0 0.0 0.0
0.0 0.0 0.0
0.0 0.0 0.0
0.0 0.0 0.0
0.0 0.0 0.0
0.0 0.0 0.0
0.0 0.0 0.0
0.0 0.0 0.0
0.0 0.0 0.0
0.0 0.0 0.0
0.0 0.0 0.0
0.0 0.0 0.0
0.0 0.0 0.0
0.0 0.0 0.0
0.0 0.0 0.0
0.0 0.0 0.0
0.0 0.0 0.0
0.0 0.0 0.0
0.0 0.0 0.0
0.0 0.0 0.0
0.0 0.0 0.0
0.0 0.0 0.0
0.0 0.0 0.0
0.0 0.0 0.0
0.0 0.0 0.0
0.0 0.0 0.0
0.0 0.0 0.0
0.0 0.0 0.0
0.0 0.0 0.0
0.0 0.0 0.0
0.0 0.0 0.0
0.0 0.0 0.0
0.0 0.0 0.0
1.0 0.0 0.0
1.0 0.0 0.0
1.0 0.0 0.0
1.0 0.0 0.0
1.10791487761 0.00264411235518 0.0
1.10105682082 -0.00309862668178 0.0
1.09985724406 -0.00479088675899 0.0
1.09660390668 0.00179898432376 0.0
1.10189815791 -0.00920572054618 0.0
1.09638887247 0.00656016334734 0.0
1.06989043776 0.0104040289442 0.0
1.07809227293 -0.00193703014155 0.0
1.07183998265 0.00427208459292 0.0
1.07854937225 0.00191708684752 0.0
1.07179310649 0.00331110405772 0.0
1.06474170287 0.00733535405122 0.0
1.07206816102 -0.000490657377691 0.0
1.08296257316 0.0317703721694 0.0
1.09279694068 -0.00946877912539 0.0
1.11339495928 -0.0129501979638 0.0
1.11040082507 -0.00304272655549 0.0
1.07916630182 -0.0656171320686 0.0
1.06807266095 0.00108144773922 0.0
1.07363513608 0.00133403754256 0.0
1.09062681563 0.00739763977468 0.0
1.07262934427 0.00310425754612 0.0
1.06850402905 -0.00628597910149 0.0
1.08017933422 -0.0148583676311 0.0
1.0815364242 0.00861698064518 0.0
1.07308048614 0.00454383596087 0.0
1.07328538412 -0.0104619686183 0.0
1.08104144231 0.00437035110594 0.0
1.0790613457 0.0125440436023 0.0
1.08997648379 0.0055246451624 0.0
1.08944504091 -0.0145186672029 0.0
1.08349736144 0.00362245665022 0.0
1.07989765709 0.0100302269074 0.0
1.07945006853 -0.00542510211993 0.0
1.07538358725 -0.00968796415223 0.0
1.07775583002 -0.00960185653987 0.0
1.06950375355 -0.000763790399453 0.0
1.03616887146 0.024517881345 0.0
1.07291756705 0.0278592857348 0.0
1.07684704543 -0.0189151799633 0.0
1.07020882275 0.000530011308195 0.0
1.07387335355 -0.00433820248795 0.0
1.06942064192 0.00138066751597 0.0
1.07609170366 -0.00126823997177 0.0
1.07689803729 0.0378312107596 0.0
1.10216758592 -0.0109710323203 0.0
1.03477163284 0.00937504260386 0.0
1.07838683316 -0.0324290237228 0.0
1.09223868402 0.0326186398133 0.0
1.02837969826 -0.0464527433796 0.0
1.08382073618 0.0104954470628 0.0
1.08197079127 -0.0186147062935 0.0
1.06872897698 -0.0143093049024 0.0
1.06611217369 -0.010198025487 0.0
1.06501695285 0.00434974463612 0.0
1.07903350212 0.00382809902324 0.0
1.06881820612 -0.00271340708492 0.0
1.07214562349 0.0204386528236 0.0
1.07411111533 -0.0154172365391 0.0
1.06972241733 -0.00828607834825 0.0
1.0665842623 0.00450602458168 0.0
1.07965276119 0.00423434230088 0.0
1.05843658186 0.00742432212577 0.0
1.0713905292 0.00318970051416 0.0
1.05589112355 0.0106376175328 0.0
1.06945298599 0.00127096303718 0.0
1.07451407566 0.00311622410226 0.0
1.06954469263 0.000489828697704 0.0
1.24136267605 -0.00256893551701 0.0
1.24880429408 -0.00347343575664 0.0
1.24440288879 -0.00349396260087 0.0
1.25221603995 -0.00440683596474 0.0
1.24432303796 -0.00388607213937 0.0
1.26026419764 -0.0139909222222 0.0
1.23965688493 -0.00773778014998 0.0
1.1626466901 0.0592333305089 0.0
1.18120055874 -0.00162861060512 0.0
1.20500845567 -0.0259784611197 0.0
1.08430630474 -0.00289658113402 0.0
1.09876284795 0.00879605016066 0.0
1.13117551935 0.0798145487932 0.0
1.12104459985 -0.0546244598023 0.0
1.03073809715 -0.011834716442 0.0
1.1168630762 -0.00752366880831 0.0
1.12632906501 7.75035430757e-05 0.0
1.13309338286 0.0063127806285 0.0
1.11643977116 -0.00875120662214 0.0
1.09738048151 -0.00648249602667 0.0
1.1295335292 -0.014777180519 0.0
1.13602847521 -0.00821843488152 0.0
1.0390812638 -0.0543800884961 0.0
1.13598328273 -0.137397790352 0.0
1.1250834777 -0.00720589646353 0.0
1.14452511426 0.00735192113326 0.0
1.15983683572 -0.0201341902942 0.0
1.16650699133 0.0115106377189 0.0
1.12158398529 -0.00525705984636 0.0
1.14020035016 0.00562515837958 0.0
1.12180289455 -0.00324673156618 0.0
1.13984257827 0.00507861796137 0.0
1.1526956059 0.00658259525141 0.0
1.13552343561 -0.00931042234994 0.0
1.13851050988 0.00583634642302 0.0
1.18076109268 -0.0111897332944 0.0
1.17056201423 0.0213069353623 0.0
1.17156411189 0.0182746341937 0.0
1.17466617297 -0.00724452067824 0.0
1.162548469 0.0270375597836 0.0
1.17142799389 -0.012354977951 0.0
1.17960316541 0.0175864362353 0.0
1.17717481141 -0.00763129369095 0.0
1.10201935212 0.0119133713828 0.0
1.1052595345 -0.0149407592555 0.0
1.22407740291 -0.0256701051347 0.0
1.21137186975 0.0379804140886 0.0
1.09659997155 -0.0119603284299 0.0
1.09588283719 0.0121735040907 0.0
1.22619585143 0.0212170050097 0.0
1.23405750252 -0.0167000173292 0.0
1.22683318188 0.0210007890118 0.0
1.24355064704 -0.0244622035232 0.0
1.22471338049 0.0197824198011 0.0
1.20938288741 0.0326182697918 0.0
1.18748049341 0.00154039827658 0.0
1.09300847687 -0.00595677893745 0.0
1.0884634268 0.00258895775655 0.0
1.08771539516 -0.00634207840792 0.0
1.08859259974 0.00155236197397 0.0
1.08649959903 0.0352002517529 0.0
1.08872269811 -0.000425076586422 0.0
1.09141194469 -0.00839160317573 0.0
1.10149596718 -0.00327843270441 0.0
1.09868114631 0.00120876888227 0.0
1.10218113016 0.000925380206922 0.0
1.10827203465 0.00276709407705 0.0
1.10323674962 -0.00500649496197 0.0
1.10215304364 -0.00149331639455 0.0
1.09066416704 -0.012177161721 0.0
1.09852459006 0.00123236192134 0.0
1.10498330036 -0.00521702329482 0.0
1.09367650923 0.00778302442217 0.0
1.09376502465 -0.0105404987867 0.0
1.08566881387 -0.00655540261007 0.0
1.0894872287 0.0183792731845 0.0
1.08591120853 -0.00560628053661 0.0
1.09174727508 0.00342617368002 0.0
1.0856339254 -0.00357437981152 0.0
1.09502530404 0.00261418825313 0.0
1.21337750409 -0.0278274937007 0.0
1.22685248829 -0.016584244638 0.0
1.24853880206 0.0201659628499 0.0
1.18468866831 0.0329119551483 0.0
1.20265328949 -0.0268511563189 0.0
1.22759379807 -0.0161926974518 0.0
1.23646319956 0.0182479553344 0.0
1.226505891 -0.0161278951681 0.0
1.23298886615 0.0204212947111 0.0
1.20126660666 0.0248950240679 0.0
1.25619589715 0.000941636136523 0.0
1.11088829524 0.113257164706 0.0
1.18305015381 -0.0418603031033 0.0
1.16456395627 0.0165888363319 0.0
1.15887509689 -0.025137529536 0.0
1.12283324496 -0.0171089069568 0.0
1.12959582071 -0.0143809927999 0.0
1.12535213947 -0.0250721354905 0.0
1.11436292579 0.0091726937158 0.0
1.10111241555 0.0117155498528 0.0
1.1188790498 -0.0245265611847 0.0
1.07036206849 -0.010946231627 0.0
1.09825882091 -0.022703748219 0.0
1.09539892328 0.012574149198 0.0
1.11270866065 -0.0250826959735 0.0
1.09806599712 0.0160596348707 0.0
1.11166635958 -0.0258572569085 0.0
1.09618469273 -0.000911817927443 0.0
1.08683758764 -0.00219099956555 0.0
1.11209971282 -0.0257271348653 0.0
1.09878796552 -0.00110459411467 0.0
1.08962107882 0.000317136269965 0.0
1.1771449684 -0.041816954547 0.0
1.20295806263 0.0365326369527 0.0
1.07730389247 0.00251346933755 0.0
1.0858760495 0.000248842933452 0.0
1.10492368923 0.0522607318922 0.0
1.22524883169 -0.00388582095659 0.0
1.07499562694 -0.00193372623456 0.0
1.08373273053 0.00457453080251 0.0
1.07537646615 0.00585626142131 0.0
1.07482893269 -0.00289392028163 0.0
1.17172379017 -0.0062843667174 0.0
1.07519660871 -0.00337871437939 0.0
1.05197910275 0.0402535980784 0.0
1.0856706185 -0.00920914332341 0.0
1.09546657515 0.00129131440774 0.0
1.1074445332 -0.00855093989396 0.0
1.07087105384 -0.00506987746744 0.0
1.05196775019 -0.0110893326032 0.0
1.04969114637 0.0404303733257 0.0
1.06019590038 -0.000603579616566 0.0
1.04410422021 0.00448873243823 0.0
1.05420369897 0.000675573765039 0.0
1.05254374291 -0.00901782948111 0.0
1.05227485197 -0.00827129457102 0.0
1.06642222543 0.00602808071175 0.0
1.10810389505 -0.013799686771 0.0
1.09121756774 0.00714901815403 0.0
1.05980001452 -0.00153869817573 0.0
1.11288203828 3.94459374054e-05 0.0
1.1038895889 -0.0101026502159 0.0
1.09343171933 0.00861397363606 0.0
1.11254468456 -0.0151052769221 0.0
1.10906276788 0.00243116395704 0.0
1.09261125816 0.000380983121274 0.0
1.05969787393 0.00597025254898 0.0
1.02482404734 -0.00112529856596 0.0
1.05998547478 0.00690536867291 0.0
1.05791927306 -0.0114970848092 0.0
1.11646302037 0.00257458566092 0.0
1.11937579668 0.01024560118 0.0
1.05718662073 0.00810629353525 0.0
1.05677152633 -0.0112260225673 0.0
1.05097449927 -0.0133438033502 0.0
1.0681090751 -0.0270015778559 0.0
1.15843643637 -0.0901282683993 0.0
1.08998226235 0.0442861162476 0.0
1.06801133829 -0.00544598336302 0.0
1.10477195506 -0.0367886124623 0.0
1.11395363439 0.00617082481198 0.0
1.09703555954 -0.00105938010346 0.0
1.02752344773 0.0582097187642 0.0
1.05563410032 -0.00790728943661 0.0
1.13829007419 0.0574081417269 0.0
1.03015537056 -0.0830976207482 0.0
1.15027428744 -0.0223281024227 0.0
1.08976385522 -4.42096076849e-05 0.0
1.10282687178 0.00696416074622 0.0
1.10331486664 -0.00557392789875 0.0
1.10154110155 0.00224866195739 0.0
1.17530207858 0.090140618787 0.0
1.0821069901 0.0114216648264 0.0
1.17389688929 -0.0847807332377 0.0
1.18045288965 -0.0699501074293 0.0
1.09970804658 -0.00725477287023 0.0
1.09820587653 0.00603914151847 0.0
1.03877111426 0.0392604659703 0.0
1.05293396234 0.0259936826729 0.0
1.02436036847 -0.0393535577665 0.0
1.08355557021 0.00362559303625 0.0
1.08773085349 -0.00188734038789 0.0
1.09463427115 -0.00406053107139 0.0
1.09296610717 0.0362646679037 0.0
1.08279663178 0.00122221179997 0.0
1.08552925392 0.00116797428909 0.0
1.08268517351 0.000382793669817 0.0
1.0802935009 0.00567672603516 0.0
1.05271703792 0.0262303641983 0.0
1.0387362974 -0.0117179813911 0.0
1.08653719574 -0.00476970100616 0.0
1.05520834319 0.0268219958912 0.0
1.03891460303 -0.013639417546 0.0
1.06299616784 0.0266768129291 0.0
1.04691787296 -0.0149231140668 0.0
1.06369121961 0.0225552364522 0.0
1.08270781481 -0.0318663696017 0.0
1.10824957639 -0.0144526107944 0.0
1.10542544999 -0.0129512044931 0.0
1.07961687447 0.0342275557329 0.0
1.07297447317 -0.0215799065255 0.0
1.12007859178 -0.0121897078062 0.0
1.11076049768 -0.0135509196989 0.0
1.03693208367 0.0167313355496 0.0
1.1687406147 -0.0769794311167 0.0
1.05382278136 -0.0193802731263 0.0
1.05918008044 0.0355208546008 0.0

SCALARS scalar1 double
LOOKUP_TABLE default
2.90346673241
9.8233359454
9.90703296478
11.107606456
-8.82290529641
-2.44325439338
10.9373249679
10.369865624
9.67793187949
9.48602377715
8.50053032077
9.74706054327
9.83480439232
8.49909751685
9.8968510704
9.08990710831
8.54122737736
8.6379197922
9.74116644141
8.61001405954
8.62581778187
9.75152948445
8.61090126173
8.62088796103
9.73256318213
8.58909988361
8.53125511936
9.58586351364
9.49291536285
9.44804327814
10.857484792
6.60756274042
10.2856845222
8.97417952391
9.73473947853
10.010775457
8.8598195833
8.75846587683
9.85461247283
8.65788766174
8.6828369613
9.79645590565
8.65407136925
8.61002963157
9.22113258714
9.94214189279
8.54934522517
9.82790144359
9.79852267307
8.46386208059
9.63168916101
9.87375935899
9.87462124793
10.5296604294
0.110710030822
-0.0175009805159
-0.0274351137085
0.280269383848
-10.6569468747
-9.97109886113
-10.4432228351
-9.61592796828
-8.43341802398
-9.33839735267
-10.870692656
-8.85959458026
-9.47476247332
-10.6786756781
-8.76030015165
-9.37599019928
-10.541269392
-8.70092164297
-9.34939031747
-10.5558361627
-8.82306857694
-9.45223268469
-10.526576651
-11.4456678047
-8.02691720887
-9.5483037515
-9.14738647672
-8.82648529819
-9.0594448812
-7.79300753197
-11.8078660968
-10.8838945633
-9.57385536396
-8.92546620526
-10.7505867395
-9.49637750335
-8.83468310896
-10.7401633812
-9.48313786134
-8.84509458637
-10.7654902589
-9.52010452218
-8.90612996811
-10.8955946867
-9.61001258884
-8.94890608476
-10.9940084643
-9.32479935106
-8.41741394837
-9.59293589239
-10.2806917967
-10.6236988353
-11.1791656259
2.16415344617
-0.0906220242537
-0.0321676745556
-2.8744609196
0.0307783039427
0.0120627526256
0.0502002267003
0.0346759075983
0.0528451232123
0.0320588612343
0.00283084468844
0.0180076355278
0.00814339015988
0.0169278890165
0.00803107640074
0.0237050635249
0.0099834026375
0.0172992030118
0.0358045967322
-0.034265337455
-0.185737536929
-0.154053858464
0.196743884563
0.134418653847
0.210683453583
0.135501385613
0.0950789710545
0.0992038158804
0.130761670457
0.136976737854
0.0916952989394
-0.113682577838
-0.11653965981
0.139331480147
0.0962093872557
-0.129647265502
-0.122897879687
0.0545212969267
0.108614136527
-0.241559183875
-0.280096408081
-0.112553641087
-0.129048154631
-0.283998904484
-0.282045387813
-0.292412341992
-0.279340840762
-0.288273194179
0.223932579322
0.146855690838
0.335876416642
0.0502582852877
-0.0968376857433
-0.181071654912
-0.177116674735
-0.377154446834
-0.381954284161
-0.376616585943
0.231506393203
0.396912500734
0.282541892178
0.412659659365
-0.372742063793
-0.375037388433
0.211745293723
0.387722751708
0.21323654511
0.382601832609
0.213730051759
0.381195584435
0.28027941281
0.379205132367
-0.843956309829
-0.793360656479
-0.803766910423
-0.797260767225
-0.804826901844
-1.05699121735
-0.802955437038
-0.115761840872
-0.123188735959
0.647836035362
0.370579641972
0.455920818096
0.694757089411
-0.239772132173
-0.0176043014259
-0.00961064632799
-0.809440619791
-0.658149840485
-0.0124292286707
0.00241784460882
0.613823025075
0.890960169929
0.764779533253
-0.614807198865
-0.2876966382
0.224448652434
-0.190959308654
0.360312149595
-0.287952200354
0.224866062739
-0.169938644882
0.22902473995
0.207404612216
-0.298816732088
0.23000495803
-0.301023274449
0.459711382811
0.4581289456
-0.324669277674
0.38596097483
-0.296804288146
0.425301303882
-0.300120230572
-0.0906940483523
0.0114752781123
0.336795054067
-0.224921169375
0.0196219550611
0.00611003784848
-0.0941230935779
0.412853707206
-0.0941839403197
0.371072504793
-0.0971801721198
-0.701056861655
0.201297180886
0.0121269693784
0.0145475686045
0.0125128882281
0.0140689745673
0.0422149307599
0.0126946489343
-0.00251183355408
0.025733930479
0.00630286898027
-0.00110750594438
-0.00929833599965
-0.00106955478405
-0.0068749287667
0.0102820181377
-0.00589328512283
-0.0038276025523
0.0012897814384
0.03684033767
0.024102341801
0.0700888885817
0.0242694336937
0.0414377522854
0.0244441839811
0.0424631836493
0.469999692166
0.413384572422
-0.858087241889
0.43567142297
-0.266543427846
0.41371841645
-0.0863724360743
0.412997205523
-0.0845252873485
-1.15045877943
0.741321081301
-0.0288165537034
-0.75699986487
0.242383847215
-0.373566720702
-0.119475940163
0.0487470685289
-1.02946727828
-0.750090969463
-0.816577155345
-1.0097173305
-1.50778951764
-1.22094654404
-0.782194039788
-0.988748618145
-0.743172331328
-0.985672262747
-0.0300636832625
-0.00741461242189
-0.979433707335
-0.0147901262179
0.0217138091887
-0.177046932528
0.203663568781
0.0248466549933
-0.00525106147249
1.32946317913
0.650739613461
0.0273862712834
-0.00449911558927
0.00962557511596
0.0272991446224
-0.174525744036
0.0346297123102
0.181534689207
0.0599847575954
-0.0628529610063
-0.106148884492
-0.0963540320266
-0.209220163022
-0.0867464319798
-0.512180903791
-0.2037916156
-0.5640054698
-0.210805609389
-0.209469084634
-0.524161616379
-0.108250641716
-0.0498210682593
-0.51121319537
-0.112214529295
-0.0812395836608
-0.0512543053796
-0.106954503413
-0.0623952872686
-0.0390724377249
-0.527956953804
-0.207769914671
-0.528578058181
-0.225134236928
0.0178953840795
0.00358448222308
-0.531526644546
-0.225151786484
0.000167284820058
0.0718023890627
2.98152631689
-0.0805882956023
-0.0538574559064
0.0317136968419
-0.0803636919465
0.0992277904142
0.539025773017
-2.1495074632
-2.42124624041
-0.714772743779
-0.13396167387
0.00886683650627
-0.0289287159159
-0.0840422632313
-0.0951146235428
-2.76144639003
2.13550637927
2.6513139787
-0.555154011344
-0.082618546889
-0.0830656692494
-3.15215830281
-2.85859834959
-2.16050281055
-0.0530259487791
-0.0769589774308
-0.0462063837801
0.0304276089908
-0.0528443459903
-0.0773308455794
-0.05287314174
-0.0344152853176
-2.85431747562
-2.33336595375
-0.061163636569
-2.85403170369
-2.34248176756
-2.88964431248
-2.38798752448
2.37858823735
2.54426156736
2.40152206954
2.39854587472
-2.85762109468
-2.20645003713
2.35247649398
2.39936673355
5.43509657327
1.10168805676
-2.91326344372
-3.23273465393

SCALARS scalar2 double
LOOKUP_TABLE default
2.90346673241
9.8233359454
9.90703296478
11.107606456
-8.82290529641
-2.44325439338
10.9373249679
10.369865624
9.67793187949
9.48602377715
8.50053032077
9.74706054327
9.83480439232
8.49909751685
9.8968510704
9.08990710831
8.54122737736
8.6379197922
9.74116644141
8.61001405954
8.62581778187
9.75152948445
8.61090126173
8.62088796103
9.73256318213
8.58909988361
8.53125511936
9.58586351364
9.49291536285
9.44804327814
10.857484792
6.60756274042
10.2856845222
8.97417952391
9.73473947853
10.010775457
8.8598195833
8.75846587683
9.85461247283
8.65788766174
8.6828369613
9.79645590565
8.65407136925
8.61002963157
9.22113258714
9.94214189279
8.54934522517
9.82790144359
9.79852267307
8.46386208059
9.63168916101
9.87375935899
9.87462124793
10.5296604294
0.110710030822
-0.0175009805159
-0.0274351137085
0.280269383848
-10.6569468747
-9.97109886113
-10.4432228351
-9.61592796828
-8.43341802398
-9.33839735267
-10.870692656
-8.85959458026
-9.47476247332
-10.6786756781
-8.76030015165
-9.37599019928
-10.541269392
-8.70092164297
-9.34939031747
-10.5558361627
-8.82306857694
-9.45223268469
-10.526576651
-11.4456678047
-8.02691720887
-9.5483037515
-9.14738647672
-8.82648529819
-9.0594448812
-7.79300753197
-11.8078660968
-10.8838945633
-9.57385536396
-8.92546620526
-10.7505867395
-9.49637750335
-8.83468310896
-10.7401633812
-9.48313786134
-8.84509458637
-10.7654902589
-9.52010452218
-8.90612996811
-10.8955946867
-9.61001258884
-8.94890608476
-10.9940084643
-9.32479935106
-8.41741394837
-9.59293589239
-10.2806917967
-10.6236988353
-11.1791656259
2.16415344617
-0.0906220242537
-0.0321676745556
-2.8744609196
0.0307783039427
0.0120627526256
0.0502002267003
0.0346759075983
0.0528451232123
0.0320588612343
0.00283084468844
0.0180076355278
0.00814339015988
0.0169278890165
0.00803107640074
0.0237050635249
0.0099834026375
0.0172992030118
0.0358045967322
-0.034265337455
-0.185737536929
-0.154053858464
0.196743884563
0.134418653847
0.210683453583
0.135501385613
0.0950789710545
0.0992038158804
0.130761670457
0.136976737854
0.0916952989394
-0.113682577838
-0.11653965981
0.139331480147
0.0962093872557
-0.129647265502
-0.122897879687
0.0545212969267
0.108614136527
-0.241559183875
-0.280096408081
-0.112553641087
-0.129048154631
-0.283998904484
-0.282045387813
-0.292412341992
-0.279340840762
-0.288273194179
0.223932579322
0.146855690838
0.335876416642
0.0502582852877
-0.0968376857433
-0.181071654912
-0.177116674735
-0.377154446834
-0.381954284161
-0.376616585943
0.231506393203
0.396912500734
0.282541892178
0.412659659365
-0.372742063793
-0.375037388433
0.211745293723
0.387722751708
0.21323654511
0.382601832609
0.213730051759
0.381195584435
0.28027941281
0.379205132367
-0.843956309829
-0.793360656479
-0.803766910423
-0.797260767225
-0.804826901844
-1.05699121735
-0.802955437038
-0.115761840872
-0.123188735959
0.647836035362
0.370579641972
0.455920818096
0.694757089411
-0.239772132173