# vtk DataFile Version 2.0
2D Simulation Python
ASCII
DATASET UNSTRUCTURED_GRID
FIELD FieldData 1
NODES 1 2 int
386 659

POINTS 386 double
0.0 1.0 0.0
1.725 1.0 0.0
8.275 1.0 0.0
10.0 1.0 0.0
10.0 0.0 0.0
0.0 0.0 0.0
0.1916666666663293 1.0 0.0
0.3833333333324708 1.0 0.0
0.574999999998553 1.0 0.0
0.7666666666645966 1.0 0.0
0.9583333333312576 1.0 0.0
1.149999999998384 1.0 0.0
1.341666666665662 1.0 0.0
1.533333333332819 1.0 0.0
1.92348484848444 1.0 0.0
2.121969696968978 1.0 0.0
2.320454545453434 1.0 0.0
2.518939393937826 1.0 0.0
2.717424242422235 1.0 0.0
2.915909090906411 1.0 0.0
3.1143939393908 1.0 0.0
3.312878787875129 1.0 0.0
3.511363636359531 1.0 0.0
3.709848484843827 1.0 0.0
3.90833333332816 1.0 0.0
4.106818181812215 1.0 0.0
4.305303030296804 1.0 0.0
4.503787878781365 1.0 0.0
4.702272727265711 1.0 0.0
4.900757575750005 1.0 0.0
5.099242424235156 1.0 0.0
5.297727272720327 1.0 0.0
5.496212121205663 1.0 0.0
5.694696969690998 1.0 0.0
5.89318181817668 1.0 0.0
6.09166666666213 1.0 0.0
6.290151515147423 1.0 0.0
6.488636363633031 1.0 0.0
6.687121212118713 1.0 0.0
6.885606060604342 1.0 0.0
7.084090909089381 1.0 0.0
7.282575757574369 1.0 0.0
7.481060606059355 1.0 0.0
7.679545454544343 1.0 0.0
7.878030303029329 1.0 0.0
8.076515151514705 1.0 0.0
8.46666666666447 1.0 0.0
8.658333333329285 1.0 0.0
8.84999999999549 1.0 0.0
9.041666666661694 1.0 0.0
9.233333333327899 1.0 0.0
9.42499999999549 1.0 0.0
9.616666666663775 1.0 0.0
9.808333333331985 1.0 0.0
10.0 0.7999999999999998 0.0
10.0 0.6000000000013869 0.0
10.0 0.4000000000016644 0.0
10.0 0.2000000000008322 0.0
9.799999999999999 0.0 0.0
9.6 0.0 0.0
9.399999999999999 0.0 0.0
9.2 0.0 0.0
8.999999999999998 0.0 0.0
8.799999999999997 0.0 0.0
8.599999999999998 0.0 0.0
8.399999999999997 0.0 0.0
8.199999999999998 0.0 0.0
7.999999999999997 0.0 0.0
7.799999999999997 0.0 0.0
7.599999999999998 0.0 0.0
7.399999999999997 0.0 0.0
7.199999999999998 0.0 0.0
6.999999999999997 0.0 0.0
6.799999999999997 0.0 0.0
6.599999999999998 0.0 0.0
6.399999999999997 0.0 0.0
6.199999999999998 0.0 0.0
5.999999999999997 0.0 0.0
5.799999999999998 0.0 0.0
5.599999999999998 0.0 0.0
5.399999999999999 0.0 0.0
5.199999999999998 0.0 0.0
4.999999999999999 0.0 0.0
4.799999999999999 0.0 0.0
4.599999999999999 0.0 0.0
4.399999999999999 0.0 0.0
4.199999999999999 0.0 0.0
3.999999999999999 0.0 0.0
3.799999999999999 0.0 0.0
3.599999999999999 0.0 0.0
3.399999999999998 0.0 0.0
3.199999999999998 0.0 0.0
2.999999999999999 0.0 0.0
2.799999999999998 0.0 0.0
2.599999999999998 0.0 0.0
2.399999999999999 0.0 0.0
2.199999999999999 0.0 0.0
1.999999999999998 0.0 0.0
1.799999999999999 0.0 0.0
1.6 0.0 0.0
1.4 0.0 0.0
1.199999999999999 0.0 0.0
0.9999999999999982 0.0 0.0
0.7999999999999989 0.0 0.0
0.6000000000000014 0.0 0.0
0.3999999999999986 0.0 0.0
0.1999999999999993 0.0 0.0
0.0 0.1999999999995579 0.0
0.0 0.3999999999989749 0.0
0.0 0.5999999999989468 0.0
0.0 0.7999999999994734 0.0
0.6587146145478961 0.5450362533945313 0.0
9.341285315389634 0.5450362295769485 0.0
8.742033224418652 0.5654935011852342 0.0
1.257965539549465 0.56549428912768 0.0
8.163919292392608 0.5700608189889089 0.0
1.836067152245098 0.5700755904642529 0.0
2.4291843793114327 0.5949386229741532 0.0
7.570713434438826 0.5947616265839291 0.0
3.029060612000048 0.5989710913675741 0.0
6.970323647378765 0.5974644285041282 0.0
3.6271668980289014 0.5979790214901397 0.0
6.369071918796284 0.5887003188733201 0.0
4.228125253733123 0.5887069732876703 0.0
5.795748377015922 0.5263939498867781 0.0
4.801676947167187 0.526353907316121 0.0
5.298732640839608 0.5187375292545393 0.0
9.677476987026985 0.7001502190539952 0.0
0.3225230042828211 0.7001502208767645 0.0
4.529592122190847 0.3365144995809436 0.0
3.917512838417179 0.36975483503518874 0.0
6.068737406801331 0.3365425962314992 0.0
3.3180545994362176 0.3736983099914884 0.0
6.680787835094296 0.3695952340512608 0.0
7.88002748685547 0.3648579043527147 0.0
2.1199368103689493 0.3649105619331525 0.0
2.7188834922224165 0.37272348468154926 0.0
7.280886406687063 0.37219751984491506 0.0
9.03756373401756 0.6712432520385376 0.0
0.9624360110465101 0.6712433652275708 0.0
1.5313625382903753 0.3583159860618561 0.0
8.468633411303973 0.3583123159535495 0.0
8.45905307343689 0.6778930937328759 0.0
1.5409433703998996 0.6778959692193393 0.0
0.9790958372711427 0.3640205899263084 0.0
9.02090381641174 0.3640204091642085 0.0
4.526271106479198 0.6887497159901957 0.0
3.9201218198434398 0.699221921011149 0.0
6.070452729161981 0.6887830175225462 0.0
2.1173257836001653 0.6893765298349619 0.0
7.882643029133996 0.6893348408271726 0.0
3.3220343725535963 0.7021629875804933 0.0
6.676665185799565 0.6991079583535291 0.0
2.724173030036502 0.7012734007962588 0.0
7.275610407763797 0.7008410075904686 0.0
0.33281255362686435 0.30326690758464525 0.0
9.667187434605617 0.3032669045807481 0.0
5.581597169436282 0.32022502124459423 0.0
5.016795537417653 0.32020237803800816 0.0
5.509643377228797 0.6929617691208836 0.0
5.0870598716360185 0.6929445464652414 0.0
0.6618013882698066 0.7348222146286215 0.0
9.338198565107835 0.7348222003349676 0.0
8.748084162159136 0.7385337567999399 0.0
1.2519149887746115 0.7385342640306463 0.0
8.670878005657919 0.27457273354491424 0.0
1.3291204790954336 0.27457388880038314 0.0
0.6803061499517675 0.23625678667844366 0.0
9.319693790755148 0.23625676381080116 0.0
8.170739192304776 0.7427780892241853 0.0
1.8292513908860917 0.7427877787188675 0.0
8.083062946403698 0.27606671934182575 0.0
1.9169218401691022 0.27608597018398956 0.0
7.48616190951155 0.28312547258723736 0.0
2.5137299825472965 0.28334170223003596 0.0
6.88617240911856 0.28359887852193505 0.0
3.113264399963963 0.2854288367608378 0.0
6.285741259108228 0.26930745388421706 0.0
3.7126213730267685 0.2839227097814431 0.0
2.4217020013030943 0.8103507738937494 0.0
7.578239534675056 0.8102540942898601 0.0
3.0207556892508816 0.8129945625350312 0.0
6.978877659973696 0.8121857309250597 0.0
3.617569740512638 0.8124864416138693 0.0
6.380124926220738 0.8084472224389524 0.0
4.216124174266645 0.8084492616816439 0.0
5.793888431486255 0.8423763168757118 0.0
4.802195672414903 0.8423570506309441 0.0
5.299533678996764 0.18495033049466375 0.0
4.312929683886599 0.26930549276499866 0.0
4.742607370233149 0.23681614486946811 0.0
5.856197253222547 0.23684282913385615 0.0
5.298305551904433 0.7160583401423656 0.0
0.19482386576355765 0.5018817537004093 0.0
9.805176128641921 0.5018817525415105 0.0
9.487000435958036 0.16198981499079576 0.0
0.5129995455392412 0.16198982088769553 0.0
9.568978841208239 0.5116231422711969 0.0
0.43102113620765037 0.5116231482941156 0.0
9.509171799552135 0.8359975476145215 0.0
0.4908281875952865 0.8359975507619462 0.0
9.82368903885097 0.82760667435723 0.0
0.17631095915453643 0.8276066746741029 0.0
7.691331474134342 0.19109773512696324 0.0
2.3086273504670456 0.19116968791806066 0.0
8.876915811352127 0.19089600204571533 0.0
1.1230837237045221 0.19089629954638118 0.0
7.091592148240066 0.19320395292408976 0.0
2.908174732098375 0.19386242597035547 0.0
6.49171040193842 0.18843617696861623 0.0
3.5077097890223263 0.19370646555841367 0.0
1.7128198551309617 0.18681742026485587 0.0
8.287174902716695 0.1868117097689673 0.0
4.107384806564142 0.18847440273688512 0.0
8.577965334215001 0.8273903953042355 0.0
1.4220333289752876 0.8273913682814157 0.0
8.923568827338569 0.8253967054597133 0.0
1.0764308957172397 0.825396844271531 0.0
0.8417397722950355 0.8242335684032608 0.0
9.158260139584339 0.8242335337779756 0.0
8.346365666062972 0.8283473820513924 0.0
1.6536308386872653 0.8283504913116915 0.0
5.592783911119546 0.5030354046608723 0.0
5.00475247114146 0.5030083223699927 0.0
7.790035565002265 0.8378508257539362 0.0
2.209938985869558 0.8378870867167334 0.0
7.778091984695642 0.5489697349274658 0.0
2.2218537666728886 0.5490516988227624 0.0
2.8145549140573354 0.8430866282324241 0.0
7.185272835858967 0.842736737314735 0.0
3.4112672447347 0.8433079247665798 0.0
6.587670509716874 0.8411484735008817 0.0
4.008466128190183 0.8411870790039063 0.0
5.985228189486318 0.8424483153851537 0.0
4.610856889580584 0.842427682781058 0.0
7.176506758585698 0.5565679471318626 0.0
2.823144977649481 0.5573508161601224 0.0
6.576447904590876 0.5522086830980677 0.0
3.4215397363172437 0.5577062111948454 0.0
5.978846862113643 0.5296391685159412 0.0
4.020966277782324 0.552295914674204 0.0
4.618570331931862 0.5295980758982877 0.0
8.549781392609967 0.538320853784061 0.0
1.4502156651432812 0.5383231431745743 0.0
1.0628967983365825 0.5300747196749865 0.0
0.8720044703662094 0.5227723491411134 0.0
8.937102683579287 0.5300744464613453 0.0
9.12799532382003 0.5227722604328616 0.0
4.432991241699389 0.5438825115890744 0.0
1.6363912316730789 0.5343893341775529 0.0
8.363602293346656 0.5343833226593697 0.0
2.0316886712663282 0.5462769562616802 0.0
7.968283348122361 0.5462407623920681 0.0
3.8292548813297644 0.5606392190741417 0.0
6.164375728692702 0.5439115349823418 0.0
3.2306548628164546 0.5634170414664352 0.0
6.768216771500691 0.5604064579580028 0.0
2.6317934844250943 0.5616060858323463 0.0
7.368010471713811 0.5612163314818839 0.0
4.421142712850457 0.8387682959456211 0.0
3.8211438804144606 0.8424042014470037 0.0
6.1749630285299615 0.8387842419438439 0.0
1.9985821036140106 0.8322491998852045 0.0
8.001405577534788 0.8322343789932868 0.0
3.2243659366971857 0.8435913437117094 0.0
6.775037716389004 0.842295823295779 0.0
2.627193858457908 0.842632778124449 0.0
7.372709187873114 0.8424540217908197 0.0
4.921642510059606 0.18251336714764732 0.0
5.677431446503757 0.18253117265047894 0.0
0.16562797975895494 0.15665402695486078 0.0
9.834372017539442 0.15665402639516435 0.0
9.13665786916839 0.18202428161419337 0.0
0.8633420012833669 0.1820243467141439 0.0
9.487018580662557 0.6654760138566633 0.0
0.5129813930605587 0.6654760207790111 0.0
1.4799246953226135 0.15728922152832345 0.0
8.52007350862403 0.1572876084332597 0.0
7.9256494018772745 0.159291502273438 0.0
2.0743344179080534 0.15931516021936054 0.0
6.138440961920626 0.14490314496595513 0.0
4.460831613042115 0.1448923207138661 0.0
[...]
POINT_DATA 386
VECTORS vector double
1.0 0.0 0.0
0.0 0.0 0.0
0.0 0.0 0.0
0.0 0.0 0.0
0.0 0.0 0.0
1.0 0.0 0.0
0.0 0.0 0.0
0.0 0.0 0.0
0.0 0.0 0.0
0.0 0.0 0.0
0.0 0.0 0.0
0.0 0.0 0.0
0.0 0.0 0.0
0.0 0.0 0.0
0.0 0.0 0.0
0.0 0.0 0.0
0.0 0.0 0.0
0.0 0.0 0.0
0.0 0.0 0.0
0.0 0.0 0.0
0.0 0.0 0.0
0.0 0.0 0.0
0.0 0.0 0.0
0.0 0.0 0.0
0.0 0.0 0.0
0.0 0.0 0.0
0.0 0.0 0.0
0.0 0.0 0.0
0.0 0.0 0.0
0.0 0.0 0.0
0.0 0.0 0.0
0.0 0.0 0.0
0.0 0.0 0.0
0.0 0.0 0.0
0.0 0.0 0.0
0.0 0.0 0.0
0.0 0.0 0.0
0.0 0.0 0.0
0.0 0.0 0.0
0.0 0.0 0.0
0.0 0.0 0.0
0.0 0.0 0.0
0.0 0.0 0.0
0.0 0.0 0.0
0.0 0.0 0.0
0.0 0.0 0.0
0.0 0.0 0.0
0.0 0.0 0.0
0.0 0.0 0.0
0.0 0.0 0.0
0.0 0.0 0.0
0.0 0.0 0.0
0.0 0.0 0.0
0.0 0.0 0.0
0.986398257625 0.0885905928021 0.0
1.34728727185 -0.00200203420254 0.0
1.34197058268 -0.00627867755745 0.0
0.997509806687 -0.0855305719396 0.0
0.0 0.0 0.0
0.0 0.0 0.0
0.0 0.0 0.0
0.0 0.0 0.0
0.0 0.0 0.0
0.0 0.0 0.0
0.0 0.0 0.0
0.0 0.0 0.0
0.0 0.0 0.0
0.0 0.0 0.0
0.0 0.0 0.0
0.0 0.0 0.0
0.0 0.0 0.0
0.0 0.0 0.0
0.0 0.0 0.0
0.0 0.0 0.0
0.0 0.0 0.0
0.0 0.0 0.0
0.0 0.0 0.0
0.0 0.0 0.0
0.0 0.0 0.0
0.0 0.0 0.0
0.0 0.0 0.0
0.0 0.0 0.0
0.0 0.0 0.0
0.0 0.0 0.0
0.0 0.0 0.0
0.0 0.0 0.0
0.0 0.0 0.0
0.0 0.0 0.0
0.0 0.0 0.0
0.0 0.0 0.0
0.0 0.0 0.0
0.0 0.0 0.0
0.0 0.0 0.0
0.0 0.0 0.0
0.0 0.0 0.0
0.0 0.0 0.0
0.0 0.0 0.0
0.0 0.0 0.0
0.0 0.0 0.0
0.0 0.0 0.0
0.0 0.0 0.0
0.0 0.0 0.0
0.0 0.0 0.0
0.0 0.0 0.0
0.0 0.0 0.0
0.0 0.0 0.0
0.0 0.0 0.0
1.0 0.0 0.0
1.0 0.0 0.0
1.0 0.0 0.0
1.0 0.0 0.0
1.23526500837 -0.0448981436015 0.0
1.36453768687 -0.0164060058654 0.0
1.3670999561 -0.0135032042953 0.0
1.32914050676 0.000957464060115 0.0
1.36675296412 -0.00867286975128 0.0
1.35580529338 0.0119190163755 0.0
1.34904270121 0.00533513157215 0.0
1.35227004809 -0.00542050549931 0.0
1.34745768798 0.00106910953959 0.0
1.34687896696 -4.13400354329e-05 0.0
1.3474716343 -0.00423467746187 0.0
1.3390999242 0.0016939667933 0.0
1.34878181315 -0.00578465849236 0.0
1.3309151791 0.000908864001761 0.0
1.34873511049 0.0066738723953 0.0
1.36270188504 -0.0128937637072 0.0
1.25365031095 0.00156721720727 0.0
1.14292577753 -0.121807417203 0.0
1.23855663405 0.0105595141882 0.0
1.28497828592 0.00060189344572 0.0
1.23311025314 0.00498881072008 0.0
1.28993682713 0.00423468655236 0.0
1.27710423517 0.00299381045494 0.0
1.27686652449 -0.00558668296295 0.0
1.30174887002 0.0136024513373 0.0
1.29752974555 0.00784656546974 0.0
1.27793335825 -0.0015564342319 0.0
1.30298359269 -0.00988441097766 0.0
1.26501378586 -0.0222987789149 0.0
1.30714815937 0.025447163859 0.0
1.28051140037 -0.0116211969048 0.0
1.3112976367 -0.00759492224936 0.0
1.27583147044 0.014217158766 0.0
1.29500879824 0.0142228102413 0.0
1.30361532433 -0.0202701636418 0.0
1.27447973394 0.00552590647897 0.0
1.25604216171 0.00479183483356 0.0
1.26521449462 0.010159898226 0.0
1.26717163879 0.0194340816532 0.0
1.28679213591 -0.00967803757254 0.0
1.25247107577 0.00809604986841 0.0
1.25766272363 0.00558756129677 0.0
1.24759898467 0.012425570093 0.0
1.26049786536 0.00211946114464 0.0
1.11076304271 0.0864185564155 0.0
1.25772005027 -0.00752319763682 0.0
1.19893093175 -0.00552031591348 0.0
1.19812114045 -0.00797642145321 0.0
1.22867320019 0.0122797522608 0.0
1.23234172613 -0.0216015535152 0.0
1.1972998931 -0.0707836158058 0.0
1.19785866088 -0.0139804980697 0.0
1.20388175181 -0.0125538979668 0.0
1.16592235663 -0.00363653454924 0.0
1.15221918384 -0.000860078282333 0.0
1.19395496251 0.0141808432545 0.0
1.15530220098 0.027409099441 0.0
1.12999027702 -0.00750539255961 0.0
1.21314129078 -0.0100641203321 0.0
1.18281161128 0.00523696789584 0.0
1.14436058779 0.00611715967643 0.0
1.1781586715 0.00205372413928 0.0
1.15015250958 0.00880450148846 0.0
1.17415928341 -0.00369740419137 0.0
1.15261608629 0.0113542608226 0.0
1.16686683771 -0.00679248350229 0.0
1.14680008563 0.0147362464361 0.0
1.16100763182 -0.00854308311064 0.0
1.03288013788 -5.97727022436e-05 0.0
1.06444683387 -0.00288880302716 0.0
1.04352874475 0.000359774984741 0.0
1.06371039991 -0.00402946575467 0.0
1.05221015952 -0.00220446383887 0.0
1.07235301881 -0.00348838155006 0.0
1.0622385042 -0.00441238878894 0.0
0.969524827487 0.00342252802478 0.0
0.979233876809 0.00609091506554 0.0
0.955783424621 -0.00978286014751 0.0
1.14323395703 -0.00521858914715 0.0
0.986792768269 -0.0238707874579 0.0
1.00903752266 0.0293487805876 0.0
1.1763892461 -0.0103898681688 0.0
0.991822409203 -0.0106865372666 0.0
1.38097426529 -0.00687800338082 0.0
0.908997914309 0.000921364665834 0.0
1.04908589765 0.0562465525009 0.0
1.38546952052 -0.00727678855204 0.0
1.11907674126 -0.0254808093446 0.0
0.888534820781 -0.00940076301505 0.0
1.08696583172 -0.0804188134278 0.0
0.86103279717 -0.0525712875374 0.0
1.19263554026 -0.176678143256 0.0
0.938371577232 -0.00756434445556 0.0
0.960228073366 0.0100565927266 0.0
0.961834778905 -0.0185201344003 0.0
1.03200882852 0.0244857113155 0.0
0.944938087985 -0.00715792997644 0.0
0.955757156428 0.00816973563269 0.0
0.941358746606 -0.00640421194717 0.0
0.950737228357 0.00720093514322 0.0
0.976256582105 0.0177714282845 0.0
0.934508849996 -0.011506404308 0.0
0.938724201376 0.00756687130017 0.0
0.964204812249 -0.0137996884986 0.0
0.923956707797 0.0120680150806 0.0
0.952701626457 0.00502969371407 0.0
0.937656406156 -0.0206243315374 0.0
0.974075547997 -0.0198212472609 0.0
0.946576289178 -0.0169618401783 0.0
0.969616578626 0.00710293968095 0.0
0.931794151836 -0.00546503773329 0.0
1.3328594972 -0.0193785412783 0.0
1.34176320427 0.0117218325662 0.0
0.95800487334 -0.0136130910974 0.0
0.925365364919 0.0160947679867 0.0
1.38430899378 -0.00351519874222 0.0
1.38367770964 0.00833737436903 0.0
0.938217498988 0.00746877644391 0.0
0.959906476807 -0.00345041000822 0.0
0.949778103463 0.0059342151697 0.0
0.965456097396 -0.00441967313139 0.0
0.957360698836 0.00595052006794 0.0
0.975448770558 0.0103467244755 0.0
0.968973765989 0.00104447909862 0.0
1.37702117137 0.00401644684155 0.0
1.37981556001 0.00301858922453 0.0
1.37038401633 0.00885074214564 0.0
1.37668480169 -0.00201789121829 0.0
1.34544203577 0.0101752090706 0.0
1.37626306445 -0.00637559959087 0.0
1.37130623524 0.00647863649871 0.0
1.38100482783 -0.0112584225616 0.0
1.36476670218 0.0182636815919 0.0
1.32958362049 -0.00618790189172 0.0
1.30190092199 -0.0218814256463 0.0
1.38604580314 -0.0155530042836 0.0
1.37871548186 -0.0212151030026 0.0
1.3700149494 0.00122552144991 0.0
1.37898966217 0.0176693306645 0.0
1.39159899983 -0.011562296176 0.0
1.37902514583 0.0179937767886 0.0
1.37681245962 -0.00766569100591 0.0
1.36899177897 0.00665372962064 0.0
1.3435240228 0.00836068285315 0.0
1.36992930679 0.0114369417511 0.0
1.35902400688 -0.00125231904054 0.0
1.37332152402 0.016543042592 0.0
1.36512438995 -0.00568826611929 0.0
0.957689026633 -0.00967569125829 0.0
0.950630439423 -0.000959689081065 0.0
0.976796268644 0.0130206033319 0.0
0.941150956379 0.0241473645085 0.0
0.98049819174 -0.0226643469382 0.0
0.942661372724 0.000287590091078 0.0
0.966743195292 0.00379024508733 0.0
0.929178910138 0.00147521162697 0.0
0.962409587028 0.00434158729636 0.0
0.924818879872 0.043934328013 0.0
0.959589183193 -0.0498529711926 0.0
1.10646360048 0.143806903503 0.0
0.901437905456 -0.0223662341227 0.0
0.953609783369 0.00245946248963 0.0
1.02955196955 0.00134486321055 0.0
1.2963007198 -0.0229565754151 0.0
1.23033738305 -0.110203520543 0.0
0.901962111534 0.00384336294028 0.0
0.850208224701 0.00529775542161 0.0
0.84387302044 0.00926883541405 0.0
0.86804435913 -0.00494082038403 0.0
0.826594913729 0.0252780420124 0.0
0.807026260015 -0.0173002222117 0.0
0.853199193595 0.0100283929067 0.0
0.863956759697 -0.00766509758865 0.0
0.854350630789 0.00891245884707 0.0
0.859640310431 -0.00806451698222 0.0
1.3174525145 -0.0124010704074 0.0
1.31637379666 0.0141429444734 0.0
0.853157406535 -0.00703893980219 0.0
1.3122869613 -0.002785747851 0.0
1.33363982952 0.0131967332839 0.0
0.913057091493 -0.0069752939587 0.0
1.0343494793 0.123314769392 0.0
1.33739594709 0.00156956583494 0.0
1.31684411037 0.00383288531411 0.0
0.973427887872 -0.0214032858332 0.0
0.934517194778 -0.00723922378018 0.0
1.32993573953 -0.0030323357455 0.0
1.31459826075 0.00797056974273 0.0
1.30739338683 0.0132236821701 0.0
1.32400495731 -0.0072063307419 0.0
0.990573535307 0.0234518573007 0.0
1.31692521533 -0.0103156915632 0.0
1.25475568562 0.0181230650775 0.0
1.26183256612 -0.0213393457318 0.0
1.29656703205 -0.00468022176427 0.0
1.25931909308 -0.000336923641004 0.0
1.28115071937 0.0131375951554 0.0
1.2748840458 -0.0053630613419 0.0
1.27023156516 0.00453446945079 0.0
1.27911933728 -0.00599119430115 0.0
1.26175248818 0.00894247806796 0.0
1.2744981344 0.00467388431083 0.0
1.26988647481 -0.00165025185694 0.0
1.2652472214 0.00379997426164 0.0
1.27622930837 0.00118260176879 0.0
1.29400796313 -0.0208199861781 0.0
1.25488148294 -0.00622393782804 0.0
1.28109274548 0.00122708537546 0.0
1.28044766211 0.00622264953867 0.0
1.302624303 -0.00308837028967 0.0
1.27231930379 0.0187367216141 0.0
1.30383837007 -0.0166880992588 0.0
1.25419147404 -0.0576689241722 0.0
1.29143230255 -0.00851513835493 0.0
1.27090588981 0.000842006670709 0.0
1.27461105656 -0.00370724614205 0.0
1.26709714783 0.00476806485744 0.0
1.27319936079 -0.00204680466881 0.0
1.2055725686 0.0394944474683 0.0
1.30601771238 -0.000147279496974 0.0
1.26212223802 0.00851053149389 0.0
1.27601751007 -0.00564438866044 0.0
1.25726117961 -0.0211199144329 0.0
1.25781360656 -0.0036520134014 0.0
1.02540708048 -0.132967822689 0.0
1.28250450221 -0.0135243394491 0.0
1.29093054775 0.0205681901815 0.0
1.36447968213 -0.0131887337602 0.0
1.35969654241 -0.00461827181858 0.0
1.27320298277 0.00270321322808 0.0
0.993554737507 0.0806445995183 0.0
0.777057574963 -0.00751164766999 0.0
1.07780821687 0.123276576647 0.0
1.03614280972 -0.0987255780821 0.0
1.29125674233 -0.00732972152192 0.0
1.29744216244 -0.0157982098093 0.0
1.24595551112 0.015688254891 0.0
1.347094106 -0.0210505295851 0.0
1.34431173814 0.0320668412934 0.0
0.894019963319 0.0821809867157 0.0
0.777457611857 0.027710516273 0.0
1.17852527552 -0.15544394183 0.0
0.859725603207 -0.0718498825067 0.0
1.34105576001 -0.0154816578948 0.0
1.35564339644 0.0257933654258 0.0
0.67423888525 0.0253857479045 0.0
0.706259481158 0.0120731244016 0.0
0.683147380291 -0.0240572583844 0.0
1.36061204216 0.0192794670502 0.0
1.34371155939 -0.011852846691 0.0
1.32528722006 -0.00527031613579 0.0
1.31097505066 0.0139454544546 0.0
1.35312421106 0.0151415486373 0.0
1.33970742771 -0.00713276856131 0.0
1.34915215998 0.0111942547129 0.0
1.3303696256 0.00657287808847 0.0
0.710663815048 0.0113881262482 0.0
0.706882030394 -0.0112046468271 0.0
1.34636978903 0.00455574000433 0.0
0.713523811134 0.0116019724259 0.0
0.703585663361 -0.00918761414139 0.0
0.722414865485 0.016210899632 0.0
0.695680222503 -0.0106513245181 0.0
0.837806083052 -0.0249288810609 0.0
0.737555754961 -0.0260574916653 0.0
0.776183825148 -0.00476401878916 0.0
0.748906968258 -0.0044572522621 0.0
0.787525247355 0.0371156732729 0.0
0.721260872078 -0.0251343676734 0.0
0.790499079718 -0.000252156017617 0.0
0.753100643576 -0.00331398476583 0.0
0.644613700289 0.0300733262349 0.0
1.23486075055 -0.0898480303182 0.0
0.801485600202 -0.00235304546677 0.0
0.697807695876 0.0252084436625 0.0

SCALARS scalar1 double
LOOKUP_TABLE default
3.5045749167
6.45370512028
6.78830585593
6.70902530975
-6.23923141022
-2.39831722137
11.4321950164
10.127355327
7.68823119225
6.83808866193
6.23599707273
6.33903379963
6.38279349091
6.08806578738
6.66784354704
6.43595794587
6.37981566461
6.52535349509
6.8464591848
6.6647562437
6.67375721547
6.99728107952
6.7392071431
6.70417903318
6.98973906501
6.69905639177
6.57246518488
7.04497596329
7.29253567562
7.18385677366
8.88048113957
5.32307907884
8.71902782211
6.99728075442
7.26182639402
7.1913378557
6.69729105783
6.78335160153
7.11004476633
6.80635769243
6.8120236989
7.08471682933
6.77049415519
6.64217976409
6.73563945025
7.02394118168
6.37118382365
6.66886662072
6.54526895933
6.14315126467
6.28328226793
6.23204845768
6.7127744988
6.49967535285
2.95611804891
0.645306458173
-0.607128493752
-2.8170628566
-6.76253765711
-6.81646478237
-6.41925472788
-5.95172712328
-6.05077324768
-5.86697322881
-6.4516890732
-5.98446664921
-5.80033423501
-6.17358475273
-5.8912052207
-5.72171495855
-6.13019472113
-5.88009559026
-5.71061824009
-6.15904460223
-6.01285651545
-5.72730879501
-6.21859140139
-7.70603421601
-5.32118871759
-6.36507562898
-6.14373030505
-6.04502121808
-6.07782022229
-5.0542565417
-7.36799108921
-6.0748804376
-5.68859029659
-5.98257802041
-6.1227410554
-5.70052749319
-5.89118975698
-6.11900451882
-5.72080315204
-5.92436318773
-6.17776412352
-5.81412550182
-6.04857422103
-6.37128486015
-6.04955086162
-6.3414554884
-7.01166097193
-6.41946688002
-6.6654363364
-6.75676810029
-7.5130429595
-9.59735416775
-10.5780456726
2.53037194724
-0.0903304506641
-0.0064713948689
-3.45174823351
-0.190046094911
0.179771416495
0.210481948798
0.349075605977
0.168345587723
0.340531933508
0.442317003466
0.284617926644
0.386780272498
0.28142264084
0.343759798472
0.230094176212
0.29374126979
-0.00109585272792
-0.0640631987636
-0.120489933275
1.58717235311
-1.12845434462
-1.22349267505
-0.979765258892
-0.97779370734
-0.960353874064
-0.908517747473
-1.04634678494
-0.977579762982
-0.961182809958
-0.959251196315
1.13944076056
0.97246247813
-0.848134871112
-1.06798942492
1.11466842945
1.22014775998
-0.254693226844
-0.957770712565
1.15125405211
1.23485840697
0.815999324403
1.28316168379
1.16201401172
1.26814168435
1.15279063893
1.33555255233
1.21163106025
0.732126870834
-1.40517553539
-1.19059119793
-1.37270886936
0.873997857605
0.82580537676
1.19120790928
1.94635728062
1.93633071066
1.95769650344
-1.98438831828
-1.70252563335
-1.78414097489
-2.29009577054
1.88309106799
1.97285244895
-1.99737062898
-1.95792093642
-1.89834202512
-1.92451234007
-1.86247139629
-1.89060005219
-1.95415126634
-1.89208231987
2.8926324753
2.803016189
2.86031020064
2.78589650574
2.83415592689
2.67942306461
2.76039708191
3.5057289151
3.40428956051
-2.95515971079
-2.04253577604
-2.40520508521
-2.07220866339
1.05291816705
-0.0967415104617
-0.0159440823032
-3.53430204387
-2.95990321708
0.0312065680858
-0.200504980656
3.62642439903
3.0750575912
3.64461110214
-0.75317508363
-3.06966767875
-3.18485570049
-3.07348754588
-2.81972927261
-3.01827901493
-3.112525923
-3.11466828397
-3.08870051124
-3.22314758663
-3.15388072053
-3.1633267251
3.33401854493
3.35877470771
3.37579435777
3.28376698854
3.25581062495
3.29218399349
3.40103984622
3.31210432047
-0.120185766055
-0.199440912351
3.39487260754
3.41905413117
0.0376980123624
0.165583105805
3.45576830716
3.47155159822
3.43814103187
3.4026460017
3.39052068628
3.47343024267
3.47860649523
0.0610403262126
0.15850828387
0.0557405126299
0.105446279347
0.00583832498938
0.0772483480683
-0.0235134427326
0.017247889367
0.235345038059
0.107158585688
-0.0159133058761
0.0282700335972
0.00862657769351
0.0814622308161
0.162994018858
-0.0194859961075
0.183939444488
0.0144738157513
0.149193569006
0.0423121508414
0.176599589989
0.0841472148742
0.232028676295
0.0779533961731
3.40369706899
3.47005019269
3.29838677753
3.44381067344
3.32011425829
3.49946186273
3.37393692417
3.51562447011
3.42075792456
-3.06819036741
-2.78143321125
0.0139865292191
-3.75098121571
-3.09868298801
-2.92426746767
1.23366558886
-0.598056095871
-3.71595207008
-3.63025094856
-3.56620629306
-3.7094059646
-3.93690791966
-3.8783737684
-3.48554617893
-3.61284344142
-3.53460677637
-3.56625901088
-0.81383221509
-0.257646136668
-3.59321265116
-0.859660855002
-0.621026837253
-3.12080517
3.2694315513
-0.650356630158
-0.783080985543
3.5550289568
-2.99607586643
-0.64806472314
-0.728248638865
-0.693060742246
-0.657510808446
3.36138913179
-0.694142322213
-0.817686209881
-1.01142707963
0.995674998949
1.23700083013
0.959874199284
1.12640698757
0.835267470173
1.34629333742
1.27495603552
1.29445371371
1.17693037597
1.23410656345
1.35786583378
1.15286982597
0.975895129994
1.3342966607
1.24103911686
0.978799256374
1.0723109513
1.09530343238
0.729249240995
0.985822556416
1.41398604342
0.87378165332
1.44623290941
1.10397837994
0.239383994784
-0.848208653578
1.51035737616
1.15342455327
-0.694573967035
-0.868042232923
3.51888021085
0.813758627333
0.771086214452
0.0772378130282
0.112769891657
-1.29949002955
1.13209199396
-4.37276181772
-3.48071421793
-1.60738717599
1.4178975482
-0.800865677711
-0.0274556670849
-0.600493002572
-0.199874869461
-3.77872238934
4.34318408697
3.71004796286
-3.89412263228
-0.612466366196
-0.420966782919
-4.20345219217
-4.07615513406
-4.26429107055
-0.40895740889
-0.525803315726
-0.764576952135
-0.556336099872
-0.425117675472
-0.485396587664
-0.440063951478
-0.484701728299
-4.07950756154
-4.06186847325
-0.506563562585
-4.1481543219
-4.06059639707
-4.26565344091
-4.1486590546
4.39690640979
4.32133721105
4.3653662255
4.26746470325
-4.26073467305
-4.1861880564
4.44321639721
4.35861038591
5.01082211792
1.12699252691
-4.32805087558
-4.29084209434

SCALARS scalar2 double
LOOKUP_TABLE default
3.5045749167
6.45370512028
6.78830585593
6.70902530975
-6.23923141022
-2.39831722137
11.4321950164
10.127355327
7.68823119225
6.83808866193
6.23599707273
6.33903379963
6.38279349091
6.08806578738
6.66784354704
6.43595794587
6.37981566461
6.52535349509
6.8464591848
6.6647562437
6.67375721547
6.99728107952
6.7392071431
6.70417903318
6.98973906501
6.69905639177
6.57246518488
7.04497596329
7.29253567562
7.18385677366
8.88048113957
5.32307907884
8.71902782211
6.99728075442
7.26182639402
7.1913378557
6.69729105783
6.78335160153
7.11004476633
6.80635769243
6.8120236989
7.08471682933
6.77049415519
6.64217976409
6.73563945025
7.02394118168
6.37118382365
6.66886662072
6.54526895933
6.14315126467
6.28328226793
6.23204845768
6.7127744988
6.49967535285
2.95611804891
0.645306458173
-0.607128493752
-2.8170628566
-6.76253765711
-6.81646478237
-6.41925472788
-5.95172712328
-6.05077324768
-5.86697322881
-6.4516890732
-5.98446664921
-5.80033423501
-6.17358475273
-5.8912052207
-5.72171495855
-6.13019472113
-5.88009559026
-5.71061824009
-6.15904460223
-6.01285651545
-5.72730879501
-6.21859140139
-7.70603421601
-5.32118871759
-6.36507562898
-6.14373030505
-6.04502121808
-6.07782022229
-5.0542565417
-7.36799108921
-6.0748804376
-5.68859029659
-5.98257802041
-6.1227410554
-5.70052749319
-5.89118975698
-6.11900451882
-5.72080315204
-5.92436318773
-6.17776412352
-5.81412550182
-6.04857422103
-6.37128486015
-6.04955086162
-6.3414554884
-7.01166097193
-6.41946688002
-6.6654363364
-6.75676810029
-7.5130429595
-9.59735416775
-10.5780456726
2.53037194724
-0.0903304506641
-0.0064713948689
-3.45174823351
-0.190046094911
0.179771416495
0.210481948798
0.349075605977
0.168345587723
0.340531933508
0.442317003466
0.284617926644
0.386780272498
0.28142264084
0.343759798472
0.230094176212
0.29374126979
-0.00109585272792
-0.0640631987636
-0.120489933275
1.58717235311
-1.12845434462
-1.22349267505
-0.979765258892
-0.97779370734
-0.960353874064
-0.908517747473
-1.04634678494
-0.977579762982
-0.961182809958
-0.959251196315
1.13944076056
0.97246247813
-0.848134871112
-1.06798942492
1.11466842945
1.22014775998
-0.254693226844
-0.957770712565
1.15125405211
1.23485840697
0.815999324403
1.28316168379
1.16201401172
1.26814168435
1.15279063893
1.33555255233
1.21163106025
0.732126870834
-1.40517553539
-1.19059119793
-1.37270886936
0.873997857605
0.82580537676
1.19120790928
1.94635728062
1.93633071066
1.95769650344
-1.98438831828
-1.70252563335
-1.78414097489
-2.29009577054
1.88309106799
1.97285244895
-1.99737062898
-1.95792093642
-1.89834202512
-1.92451234007
-1.86247139629
-1.89060005219
-1.95415126634
-1.89208231987
2.8926324753
2.803016189
2.86031020064
2.78589650574
2.83415592689
2.67942306461
2.76039708191
3.5057289151
3.40428956051
-2.95515971079
-2.04253577604
-2.40520508521
-2.07220866339
1.05291816705
-0.0967415104617
-0.0159440823032
-3.53430204387
-2.95990321708
0.0312065680858
-0.200504980656
3.62642439903
3.0750575912
3.64461110214
-0.75317508363
-3.06966767875
-3.18485570049
-3.07348754588
-2.81972927261
-3.01827901493
-3.112525923
-3.11466828397
-3.08870051124
-3.22314758663